
     Program PWSCF v.5.3.0 (svn rev. 11974) starts on  2May2016 at 15:54:45 

     This program is part of the open-source Quantum ESPRESSO suite
     for quantum simulation of materials; please cite
         "P. Giannozzi et al., J. Phys.:Condens. Matter 21 395502 (2009);
          URL http://www.quantum-espresso.org", 
     in publications or presentations arising from this work. More details at
     http://www.quantum-espresso.org/quote

     Parallel version (MPI), running on     1 processors
     Waiting for input...
     Reading input from standard input

     Current dimensions of program PWSCF are:
     Max number of different atomic species (ntypx) = 10
     Max number of k-points (npk) =  40000
     Max angular momentum in pseudopotentials (lmaxx) =  3

     Subspace diagonalization in iterative solution of the eigenvalue problem:
     a serial algorithm will be used


     G-vector sticks info
     --------------------
     sticks:   dense  smooth     PW     G-vecs:    dense   smooth      PW
     Sum         163     163     55                 1461     1461     283



     bravais-lattice index     =            0
     lattice parameter (alat)  =      10.2000  a.u.
     unit-cell volume          =     265.1598 (a.u.)^3
     number of atoms/cell      =            2
     number of atomic types    =            1
     number of electrons       =         8.00
     number of Kohn-Sham states=            4
     kinetic-energy cutoff     =      12.0000  Ry
     charge density cutoff     =      48.0000  Ry
     convergence threshold     =      1.0E-06
     mixing beta               =       0.7000
     number of iterations used =            8  plain     mixing
     Exchange-correlation      =  SLA  PZ   NOGX NOGC ( 1  1  0  0 0 0)
     nstep                     =           50


     celldm(1)=  10.200000  celldm(2)=   0.000000  celldm(3)=   0.000000
     celldm(4)=   0.000000  celldm(5)=   0.000000  celldm(6)=   0.000000

     crystal axes: (cart. coord. in units of alat)
               a(1) = (   0.003068   0.496516   0.502165 )  
               a(2) = (   0.495499  -0.000983   0.502164 )  
               a(3) = (   0.501319   0.503071  -0.000908 )  

     reciprocal axes: (cart. coord. in units 2 pi/alat)
               b(1) = ( -1.011034  1.009318  0.999591 )  
               b(2) = (  1.012844 -1.007531  0.990008 )  
               b(3) = (  0.999841  0.989656 -0.984632 )  


     PseudoPot. # 1 for Si read from file:
     /Users/mdavezac/workspaces/data/espresso/upf_files/Si.pz-vbc.UPF
     MD5 check sum: 6dfa03ddd5817404712e03e4d12deb78
     Pseudo is Norm-conserving, Zval =  4.0
     Generated by new atomic code, or converted to UPF format
     Using radial grid of  431 points,  2 beta functions with: 
                l(1) =   0
                l(2) =   1

     atomic species   valence    mass     pseudopotential
        Si             4.00     1.00000     Si( 1.00)

     No symmetry found



   Cartesian axes

     site n.     atom                  positions (alat units)
         1           Si  tau(   1) = (   0.0000000   0.0000000   0.0000000  )
         2           Si  tau(   2) = (   0.2488699   0.2489541   0.2544031  )

     number of k points=     2
                       cart. coord. in units 2pi/alat
        k(    1) = (   0.2500000   0.2500000   0.7500000), wk =   1.5000000
        k(    2) = (   0.2500000   0.2500000   0.2500000), wk =   0.5000000

     Dense  grid:     1461 G-vectors     FFT dimensions: (  15,  15,  15)

     Largest allocated arrays     est. size (Mb)     dimensions
        Kohn-Sham Wavefunctions         0.01 Mb     (     185,    4)
        NL pseudopotentials             0.02 Mb     (     185,    8)
        Each V/rho on FFT grid          0.05 Mb     (    3375)
        Each G-vector array             0.01 Mb     (    1461)
        G-vector shells                 0.01 Mb     (    1461)
     Largest temporary arrays     est. size (Mb)     dimensions
        Auxiliary wavefunctions         0.05 Mb     (     185,   16)
        Each subspace H/S matrix        0.00 Mb     (      16,   16)
        Each <psi_i|beta_j> matrix      0.00 Mb     (       8,    4)
        Arrays for rho mixing           0.41 Mb     (    3375,    8)

     Initial potential from superposition of free atoms

     starting charge    7.99901, renormalised to    8.00000
     Starting wfc are    8 randomized atomic wfcs

     total cpu time spent up to now is        0.1 secs

     Self-consistent Calculation

     iteration #  1     ecut=    12.00 Ry     beta=0.70
     Davidson diagonalization with overlap
     ethr =  1.00E-02,  avg # of iterations =  2.0

     total cpu time spent up to now is        0.1 secs

     total energy              =     -15.78368288 Ry
     Harris-Foulkes estimate   =     -15.80809840 Ry
     estimated scf accuracy    <       0.08028353 Ry

     iteration #  2     ecut=    12.00 Ry     beta=0.70
     Davidson diagonalization with overlap
     ethr =  1.00E-03,  avg # of iterations =  1.0

     total cpu time spent up to now is        0.1 secs

     total energy              =     -15.78737488 Ry
     Harris-Foulkes estimate   =     -15.78782300 Ry
     estimated scf accuracy    <       0.00366883 Ry

     iteration #  3     ecut=    12.00 Ry     beta=0.70
     Davidson diagonalization with overlap
     ethr =  4.59E-05,  avg # of iterations =  2.0

     total cpu time spent up to now is        0.1 secs

     total energy              =     -15.78769672 Ry
     Harris-Foulkes estimate   =     -15.78771209 Ry
     estimated scf accuracy    <       0.00007315 Ry

     iteration #  4     ecut=    12.00 Ry     beta=0.70
     Davidson diagonalization with overlap
     ethr =  9.14E-07,  avg # of iterations =  2.5

     total cpu time spent up to now is        0.1 secs

     total energy              =     -15.78771967 Ry
     Harris-Foulkes estimate   =     -15.78772030 Ry
     estimated scf accuracy    <       0.00000198 Ry

     iteration #  5     ecut=    12.00 Ry     beta=0.70
     Davidson diagonalization with overlap
     ethr =  2.48E-08,  avg # of iterations =  3.0

     total cpu time spent up to now is        0.1 secs

     End of self-consistent calculation

          k = 0.2500 0.2500 0.7500 (   185 PWs)   bands (ev):

    -2.9264  -0.0835   2.7581   4.1123

          k = 0.2500 0.2500 0.2500 (   182 PWs)   bands (ev):

    -4.8672   2.4046   5.5312   5.6034

     highest occupied level (ev):     5.6034

!    total energy              =     -15.78772023 Ry
     Harris-Foulkes estimate   =     -15.78772024 Ry
     estimated scf accuracy    <       0.00000004 Ry

     The total energy is the sum of the following terms:

     one-electron contribution =       4.83893342 Ry
     hartree contribution      =       1.09941028 Ry
     xc contribution           =      -4.82631958 Ry
     ewald contribution        =     -16.89974435 Ry

     convergence has been achieved in   5 iterations

     Forces acting on atoms (Ry/au):

     atom    1 type  1   force =    -0.01751468   -0.01212301    0.01462163
     atom    2 type  1   force =     0.01751468    0.01212301   -0.01462163

     Total force =     0.036538     Total SCF correction =     0.000070


     entering subroutine stress ...

          total   stress  (Ry/bohr**3)                   (kbar)     P=  -29.20
  -0.00022890  -0.00119610  -0.00006629        -33.67   -175.95     -9.75
  -0.00119610  -0.00026185  -0.00001351       -175.95    -38.52     -1.99
  -0.00006629  -0.00001351  -0.00010480         -9.75     -1.99    -15.42


     BFGS Geometry Optimization

     number of scf cycles    =   1
     number of bfgs steps    =   0

     enthalpy new            =     -15.7877202292 Ry

     new trust radius        =       0.0996968787 bohr
     new conv_thr            =       0.0000010000 Ry

     new unit-cell volume =    260.99308 a.u.^3 (    38.67518 Ang^3 )

CELL_PARAMETERS (alat= 10.20000000)
  -0.012628374   0.493004375   0.500676603
   0.491860574  -0.015962945   0.500027506
   0.483408928   0.484787101  -0.001905948

ATOMIC_POSITIONS (alat)
Si      -0.001674135  -0.001129888   0.001432984
Si       0.241253978   0.240926579   0.251807089



     Writing output data file pwscf.save
     NEW-OLD atomic charge density approx. for the potential
     NEW k-points:
   0.2605047   0.2597441   0.7524910   1.5000000
   0.2596633   0.2595484   0.2511760   0.5000000
     extrapolated charge    7.87230, renormalised to    8.00000

     total cpu time spent up to now is        0.3 secs

     Self-consistent Calculation

     iteration #  1     ecut=    12.00 Ry     beta=0.70
     Davidson diagonalization with overlap
     ethr =  1.00E-06,  avg # of iterations =  6.5

     total cpu time spent up to now is        0.3 secs

     total energy              =     -15.80486273 Ry
     Harris-Foulkes estimate   =     -15.74053919 Ry
     estimated scf accuracy    <       0.00235064 Ry

     iteration #  2     ecut=    12.00 Ry     beta=0.70
     Davidson diagonalization with overlap
     ethr =  2.94E-05,  avg # of iterations =  2.0

     total cpu time spent up to now is        0.3 secs

     total energy              =     -15.80549962 Ry
     Harris-Foulkes estimate   =     -15.80558790 Ry
     estimated scf accuracy    <       0.00018565 Ry

     iteration #  3     ecut=    12.00 Ry     beta=0.70
     Davidson diagonalization with overlap
     ethr =  2.32E-06,  avg # of iterations =  2.0

     total cpu time spent up to now is        0.3 secs

     total energy              =     -15.80552428 Ry
     Harris-Foulkes estimate   =     -15.80552560 Ry
     estimated scf accuracy    <       0.00000661 Ry

     iteration #  4     ecut=    12.00 Ry     beta=0.70
     Davidson diagonalization with overlap
     ethr =  8.26E-08,  avg # of iterations =  2.0

     total cpu time spent up to now is        0.3 secs

     End of self-consistent calculation

          k = 0.2605 0.2597 0.7525 (   185 PWs)   bands (ev):

    -2.7324   0.1614   2.7516   4.0394

          k = 0.2597 0.2595 0.2512 (   182 PWs)   bands (ev):

    -4.7425   2.7459   5.5458   5.6337

     highest occupied level (ev):     5.6337

!    total energy              =     -15.80552528 Ry
     Harris-Foulkes estimate   =     -15.80552546 Ry
     estimated scf accuracy    <       0.00000033 Ry

     The total energy is the sum of the following terms:

     one-electron contribution =       4.93081460 Ry
     hartree contribution      =       1.09354682 Ry
     xc contribution           =      -4.84251523 Ry
     ewald contribution        =     -16.98737147 Ry

     convergence has been achieved in   4 iterations

     Forces acting on atoms (Ry/au):

     atom    1 type  1   force =    -0.00226469   -0.00316019   -0.00841373
     atom    2 type  1   force =     0.00226469    0.00316019    0.00841373

     Total force =     0.013108     Total SCF correction =     0.000293


     entering subroutine stress ...

          total   stress  (Ry/bohr**3)                   (kbar)     P=  -19.20
  -0.00008604  -0.00086430  -0.00003521        -12.66   -127.14     -5.18
  -0.00086430  -0.00013557  -0.00002780       -127.14    -19.94     -4.09
  -0.00003521  -0.00002780  -0.00016988         -5.18     -4.09    -24.99


     number of scf cycles    =   2
     number of bfgs steps    =   1

     enthalpy old            =     -15.7877202292 Ry
     enthalpy new            =     -15.8055252760 Ry

     CASE: enthalpy_new < enthalpy_old

     new trust radius        =       0.1109537290 bohr
     new conv_thr            =       0.0000000841 Ry

     new unit-cell volume =    255.79231 a.u.^3 (    37.90451 Ang^3 )

CELL_PARAMETERS (alat= 10.20000000)
  -0.029786547   0.489255628   0.497242779
   0.488884004  -0.032855764   0.496363038
   0.464454958   0.465000948  -0.003126454

ATOMIC_POSITIONS (alat)
Si      -0.002169309  -0.001626598   0.000648994
Si       0.232000016   0.231353740   0.250492888



     Writing output data file pwscf.save
     NEW-OLD atomic charge density approx. for the potential
     NEW k-points:
   0.2722928   0.2716503   0.7576261   1.5000000
   0.2706548   0.2708718   0.2533444   0.5000000
     extrapolated charge    7.83736, renormalised to    8.00000

     total cpu time spent up to now is        0.4 secs

     Self-consistent Calculation

     iteration #  1     ecut=    12.00 Ry     beta=0.70
     Davidson diagonalization with overlap
     ethr =  1.00E-06,  avg # of iterations =  6.5

     total cpu time spent up to now is        0.4 secs

     total energy              =     -15.81722474 Ry
     Harris-Foulkes estimate   =     -15.73503598 Ry
     estimated scf accuracy    <       0.00260973 Ry

     iteration #  2     ecut=    12.00 Ry     beta=0.70
     Davidson diagonalization with overlap
     ethr =  3.26E-05,  avg # of iterations =  2.5

     total cpu time spent up to now is        0.4 secs

     total energy              =     -15.81811194 Ry
     Harris-Foulkes estimate   =     -15.81827459 Ry
     estimated scf accuracy    <       0.00033665 Ry

     iteration #  3     ecut=    12.00 Ry     beta=0.70
     Davidson diagonalization with overlap
     ethr =  4.21E-06,  avg # of iterations =  2.0

     total cpu time spent up to now is        0.5 secs

     total energy              =     -15.81814928 Ry
     Harris-Foulkes estimate   =     -15.81815398 Ry
     estimated scf accuracy    <       0.00001403 Ry

     iteration #  4     ecut=    12.00 Ry     beta=0.70
     Davidson diagonalization with overlap
     ethr =  1.75E-07,  avg # of iterations =  2.5

     total cpu time spent up to now is        0.5 secs

     total energy              =     -15.81815191 Ry
     Harris-Foulkes estimate   =     -15.81815235 Ry
     estimated scf accuracy    <       0.00000086 Ry

     iteration #  5     ecut=    12.00 Ry     beta=0.70
     Davidson diagonalization with overlap
     ethr =  1.08E-08,  avg # of iterations =  2.5

     total cpu time spent up to now is        0.5 secs

     End of self-consistent calculation

          k = 0.2723 0.2717 0.7576 (   185 PWs)   bands (ev):

    -2.5350   0.4772   2.8455   3.9265

          k = 0.2707 0.2709 0.2533 (   182 PWs)   bands (ev):

    -4.6035   3.1734   5.5878   5.6674

     highest occupied level (ev):     5.6674

!    total energy              =     -15.81815207 Ry
     Harris-Foulkes estimate   =     -15.81815207 Ry
     estimated scf accuracy    <       0.00000001 Ry

     The total energy is the sum of the following terms:

     one-electron contribution =       5.01782223 Ry
     hartree contribution      =       1.10341299 Ry
     xc contribution           =      -4.86470558 Ry
     ewald contribution        =     -17.07468171 Ry

     convergence has been achieved in   5 iterations

     Forces acting on atoms (Ry/au):

     atom    1 type  1   force =     0.00524095    0.00446625   -0.02754946
     atom    2 type  1   force =    -0.00524095   -0.00446625    0.02754946

     Total force =     0.040159     Total SCF correction =     0.000031


     entering subroutine stress ...

          total   stress  (Ry/bohr**3)                   (kbar)     P=    1.17
   0.00010965  -0.00051044   0.00000812         16.13    -75.09      1.19
  -0.00051044   0.00006750   0.00001911        -75.09      9.93      2.81
   0.00000812   0.00001911  -0.00015326          1.19      2.81    -22.55


     number of scf cycles    =   3
     number of bfgs steps    =   2

     enthalpy old            =     -15.8055252760 Ry
     enthalpy new            =     -15.8181520655 Ry

     CASE: enthalpy_new < enthalpy_old

     new trust radius        =       0.1683526343 bohr
     new conv_thr            =       0.0000002755 Ry

     new unit-cell volume =    249.61640 a.u.^3 (    36.98933 Ang^3 )

CELL_PARAMETERS (alat= 10.20000000)
  -0.055623669   0.487572383   0.491988230
   0.488303833  -0.058026563   0.490446119
   0.438544246   0.437576660  -0.003281186

ATOMIC_POSITIONS (alat)
Si      -0.002073975  -0.001434589  -0.004399421
Si       0.218855568   0.217652416   0.252671445



     Writing output data file pwscf.save
     NEW-OLD atomic charge density approx. for the potential
     NEW k-points:
   0.2890577   0.2883302   0.7663120   1.5000000
   0.2869434   0.2876626   0.2563920   0.5000000
     extrapolated charge    7.80209, renormalised to    8.00000

     total cpu time spent up to now is        0.6 secs

     Self-consistent Calculation

     iteration #  1     ecut=    12.00 Ry     beta=0.70
     Davidson diagonalization with overlap
     ethr =  1.00E-06,  avg # of iterations =  7.0

     total cpu time spent up to now is        0.6 secs

     total energy              =     -15.82716415 Ry
     Harris-Foulkes estimate   =     -15.72852459 Ry
     estimated scf accuracy    <       0.00450558 Ry

     iteration #  2     ecut=    12.00 Ry     beta=0.70
     Davidson diagonalization with overlap
     ethr =  5.63E-05,  avg # of iterations =  2.5

     total cpu time spent up to now is        0.6 secs

     total energy              =     -15.82874116 Ry
     Harris-Foulkes estimate   =     -15.82914729 Ry
     estimated scf accuracy    <       0.00084427 Ry

     iteration #  3     ecut=    12.00 Ry     beta=0.70
     Davidson diagonalization with overlap
     ethr =  1.06E-05,  avg # of iterations =  2.0

     total cpu time spent up to now is        0.6 secs

     total energy              =     -15.82884033 Ry
     Harris-Foulkes estimate   =     -15.82885109 Ry
     estimated scf accuracy    <       0.00003607 Ry

     iteration #  4     ecut=    12.00 Ry     beta=0.70
     Davidson diagonalization with overlap
     ethr =  4.51E-07,  avg # of iterations =  2.5

     total cpu time spent up to now is        0.6 secs

     total energy              =     -15.82884895 Ry
     Harris-Foulkes estimate   =     -15.82885050 Ry
     estimated scf accuracy    <       0.00000312 Ry

     iteration #  5     ecut=    12.00 Ry     beta=0.70
     Davidson diagonalization with overlap
     ethr =  3.90E-08,  avg # of iterations =  2.0

     total cpu time spent up to now is        0.7 secs

     End of self-consistent calculation

          k = 0.2891 0.2883 0.7663 (   185 PWs)   bands (ev):

    -2.3050   0.9704   3.0748   3.6807

          k = 0.2869 0.2877 0.2564 (   182 PWs)   bands (ev):

    -4.4128   3.8481   5.5970   5.6001

     highest occupied level (ev):     5.6001

!    total energy              =     -15.82884932 Ry
     Harris-Foulkes estimate   =     -15.82884936 Ry
     estimated scf accuracy    <       0.00000008 Ry

     The total energy is the sum of the following terms:

     one-electron contribution =       5.10748249 Ry
     hartree contribution      =       1.12641501 Ry
     xc contribution           =      -4.88601495 Ry
     ewald contribution        =     -17.17673187 Ry

     convergence has been achieved in   5 iterations

     Forces acting on atoms (Ry/au):

     atom    1 type  1   force =     0.01092249    0.01019025   -0.04485746
     atom    2 type  1   force =    -0.01092249   -0.01019025    0.04485746

     Total force =     0.066863     Total SCF correction =     0.000137


     entering subroutine stress ...

          total   stress  (Ry/bohr**3)                   (kbar)     P=   24.28
   0.00036326  -0.00002166   0.00009926         53.44     -3.19     14.60
  -0.00002166   0.00033907   0.00011031         -3.19     49.88     16.23
   0.00009926   0.00011031  -0.00020718         14.60     16.23    -30.48


     number of scf cycles    =   4
     number of bfgs steps    =   3

     enthalpy old            =     -15.8181520655 Ry
     enthalpy new            =     -15.8288493230 Ry

     CASE: enthalpy_new < enthalpy_old

     new trust radius        =       0.0995334638 bohr
     new conv_thr            =       0.0000004486 Ry

     new unit-cell volume =    248.48782 a.u.^3 (    36.82210 Ang^3 )

CELL_PARAMETERS (alat= 10.20000000)
  -0.069924924   0.492544858   0.487977791
   0.493846963  -0.071724833   0.485743733
   0.427385869   0.425308451  -0.000022513

ATOMIC_POSITIONS (alat)
Si      -0.001578346  -0.000839805  -0.011145867
Si       0.213400363   0.211851192   0.258006694



     Writing output data file pwscf.save
     NEW-OLD atomic charge density approx. for the potential
     NEW k-points:
   0.2942346   0.2931576   0.7740125   1.5000000
   0.2937342   0.2947003   0.2578469   0.5000000
     extrapolated charge    7.96367, renormalised to    8.00000

     total cpu time spent up to now is        0.8 secs

     Self-consistent Calculation

     iteration #  1     ecut=    12.00 Ry     beta=0.70
     Davidson diagonalization with overlap
     ethr =  1.00E-06,  avg # of iterations =  7.0

     total cpu time spent up to now is        0.8 secs

     total energy              =     -15.83582227 Ry
     Harris-Foulkes estimate   =     -15.81723315 Ry
     estimated scf accuracy    <       0.00069143 Ry

     iteration #  2     ecut=    12.00 Ry     beta=0.70
     Davidson diagonalization with overlap
     ethr =  8.64E-06,  avg # of iterations =  2.0

     total cpu time spent up to now is        0.8 secs

     total energy              =     -15.83589078 Ry
     Harris-Foulkes estimate   =     -15.83590605 Ry
     estimated scf accuracy    <       0.00006040 Ry

     iteration #  3     ecut=    12.00 Ry     beta=0.70
     Davidson diagonalization with overlap
     ethr =  7.55E-07,  avg # of iterations =  2.0

     total cpu time spent up to now is        0.8 secs

     total energy              =     -15.83590080 Ry
     Harris-Foulkes estimate   =     -15.83590070 Ry
     estimated scf accuracy    <       0.00000244 Ry

     iteration #  4     ecut=    12.00 Ry     beta=0.70
     Davidson diagonalization with overlap
     ethr =  3.05E-08,  avg # of iterations =  2.5

     total cpu time spent up to now is        0.8 secs

     End of self-consistent calculation

          k = 0.2942 0.2932 0.7740 (   185 PWs)   bands (ev):

    -2.2069   1.2190   3.2385   3.4394

          k = 0.2937 0.2947 0.2578 (   182 PWs)   bands (ev):

    -4.3244   4.1826   5.4458   5.5429

     highest occupied level (ev):     5.5429

!    total energy              =     -15.83590132 Ry
     Harris-Foulkes estimate   =     -15.83590135 Ry
     estimated scf accuracy    <       0.00000015 Ry

     The total energy is the sum of the following terms:

     one-electron contribution =       5.16645811 Ry
     hartree contribution      =       1.10862724 Ry
     xc contribution           =      -4.87510882 Ry
     ewald contribution        =     -17.23587785 Ry

     convergence has been achieved in   4 iterations

     Forces acting on atoms (Ry/au):

     atom    1 type  1   force =     0.01497941    0.01455937   -0.03536123
     atom    2 type  1   force =    -0.01497941   -0.01455937    0.03536123

     Total force =     0.058082     Total SCF correction =     0.000082


     entering subroutine stress ...

          total   stress  (Ry/bohr**3)                   (kbar)     P=   11.06
   0.00035641   0.00013888   0.00012043         52.43     20.43     17.72
   0.00013888   0.00035078   0.00012749         20.43     51.60     18.75
   0.00012043   0.00012749  -0.00048173         17.72     18.75    -70.87


     number of scf cycles    =   5
     number of bfgs steps    =   4

     enthalpy old            =     -15.8288493230 Ry
     enthalpy new            =     -15.8359013165 Ry

     CASE: enthalpy_new < enthalpy_old

     new trust radius        =       0.1474415974 bohr
     new conv_thr            =       0.0000003536 Ry

     new unit-cell volume =    245.44099 a.u.^3 (    36.37060 Ang^3 )

CELL_PARAMETERS (alat= 10.20000000)
  -0.089424330   0.505559880   0.475352006
   0.507463021  -0.090167971   0.471825759
   0.415073506   0.411382281   0.008485784

ATOMIC_POSITIONS (alat)
Si      -0.000152686   0.000764565  -0.022633694
Si       0.207455869   0.205476194   0.264847612



     Writing output data file pwscf.save
     NEW-OLD atomic charge density approx. for the potential
     NEW k-points:
   0.2958106   0.2937898   0.7982383   1.5000000
   0.3002763   0.3014330   0.2627461   0.5000000
     extrapolated charge    7.90070, renormalised to    8.00000

     total cpu time spent up to now is        0.9 secs

     Self-consistent Calculation

     iteration #  1     ecut=    12.00 Ry     beta=0.70
     Davidson diagonalization with overlap
     ethr =  1.00E-06,  avg # of iterations =  7.5

     total cpu time spent up to now is        0.9 secs

     total energy              =     -15.85005443 Ry
     Harris-Foulkes estimate   =     -15.79700884 Ry
     estimated scf accuracy    <       0.00194120 Ry

     iteration #  2     ecut=    12.00 Ry     beta=0.70
     Davidson diagonalization with overlap
     ethr =  2.43E-05,  avg # of iterations =  1.0

     total cpu time spent up to now is        1.0 secs

     total energy              =     -15.85008195 Ry
     Harris-Foulkes estimate   =     -15.85010811 Ry
     estimated scf accuracy    <       0.00015566 Ry

     iteration #  3     ecut=    12.00 Ry     beta=0.70
     Davidson diagonalization with overlap
     ethr =  1.95E-06,  avg # of iterations =  2.5

     total cpu time spent up to now is        1.0 secs

     total energy              =     -15.85010249 Ry
     Harris-Foulkes estimate   =     -15.85011429 Ry
     estimated scf accuracy    <       0.00002454 Ry

     iteration #  4     ecut=    12.00 Ry     beta=0.70
     Davidson diagonalization with overlap
     ethr =  3.07E-07,  avg # of iterations =  2.0

     total cpu time spent up to now is        1.0 secs

     total energy              =     -15.85010542 Ry
     Harris-Foulkes estimate   =     -15.85010575 Ry
     estimated scf accuracy    <       0.00000107 Ry

     iteration #  5     ecut=    12.00 Ry     beta=0.70
     Davidson diagonalization with overlap
     ethr =  1.34E-08,  avg # of iterations =  3.0

     total cpu time spent up to now is        1.0 secs

     End of self-consistent calculation

          k = 0.2958 0.2938 0.7982 (   185 PWs)   bands (ev):

    -1.9987   1.6197   3.1736   3.4914

          k = 0.3003 0.3014 0.2627 (   182 PWs)   bands (ev):

    -4.1694   4.6230   5.3731   5.4785

     highest occupied level (ev):     5.4785

!    total energy              =     -15.85010578 Ry
     Harris-Foulkes estimate   =     -15.85010596 Ry
     estimated scf accuracy    <       0.00000031 Ry

     The total energy is the sum of the following terms:

     one-electron contribution =       5.42940380 Ry
     hartree contribution      =       0.99883734 Ry
     xc contribution           =      -4.84605519 Ry
     ewald contribution        =     -17.43229173 Ry

     convergence has been achieved in   5 iterations

     Forces acting on atoms (Ry/au):

     atom    1 type  1   force =     0.02338661    0.02423553   -0.02652454
     atom    2 type  1   force =    -0.02338661   -0.02423553    0.02652454

     Total force =     0.060627     Total SCF correction =     0.000385


     entering subroutine stress ...

          total   stress  (Ry/bohr**3)                   (kbar)     P=  -21.04
   0.00035547   0.00035537   0.00013409         52.29     52.28     19.73
   0.00035537   0.00039328   0.00012725         52.28     57.85     18.72
   0.00013409   0.00012725  -0.00117774         19.73     18.72   -173.25


     number of scf cycles    =   6
     number of bfgs steps    =   5

     enthalpy old            =     -15.8359013165 Ry
     enthalpy new            =     -15.8501057766 Ry

     CASE: enthalpy_new < enthalpy_old


     WARNING: bfgs curvature condition failed, Theta= 0.812
     new trust radius        =       0.2128251117 bohr
     new conv_thr            =       0.0000002652 Ry

     new unit-cell volume =    238.21209 a.u.^3 (    35.29939 Ang^3 )

CELL_PARAMETERS (alat= 10.20000000)
  -0.118634379   0.525219608   0.455949170
   0.528007713  -0.117792372   0.450479700
   0.396719242   0.390627450   0.021324725

ATOMIC_POSITIONS (alat)
Si       0.001507242   0.002618974  -0.038069443
Si       0.199086100   0.196543784   0.273095112



     Writing output data file pwscf.save
     NEW-OLD atomic charge density approx. for the potential
     NEW k-points:
   0.2970564   0.2935682   0.8390698   1.5000000
   0.3105915   0.3120137   0.2706627   0.5000000
     extrapolated charge    7.75726, renormalised to    8.00000

     total cpu time spent up to now is        1.1 secs

     Self-consistent Calculation

     iteration #  1     ecut=    12.00 Ry     beta=0.70
     Davidson diagonalization with overlap
     ethr =  1.00E-06,  avg # of iterations =  7.5

     total cpu time spent up to now is        1.1 secs

     total energy              =     -15.87330628 Ry
     Harris-Foulkes estimate   =     -15.73182793 Ry
     estimated scf accuracy    <       0.00479941 Ry

     iteration #  2     ecut=    12.00 Ry     beta=0.70
     Davidson diagonalization with overlap
     ethr =  6.00E-05,  avg # of iterations =  1.0

     total cpu time spent up to now is        1.1 secs

     total energy              =     -15.87325337 Ry
     Harris-Foulkes estimate   =     -15.87339469 Ry
     estimated scf accuracy    <       0.00043375 Ry

     iteration #  3     ecut=    12.00 Ry     beta=0.70
     Davidson diagonalization with overlap
     ethr =  5.42E-06,  avg # of iterations =  3.0

     total cpu time spent up to now is        1.1 secs

     total energy              =     -15.87333162 Ry
     Harris-Foulkes estimate   =     -15.87341371 Ry
     estimated scf accuracy    <       0.00020628 Ry

     iteration #  4     ecut=    12.00 Ry     beta=0.70
     Davidson diagonalization with overlap
     ethr =  2.58E-06,  avg # of iterations =  2.0

     total cpu time spent up to now is        1.2 secs

     total energy              =     -15.87333391 Ry
     Harris-Foulkes estimate   =     -15.87334821 Ry
     estimated scf accuracy    <       0.00002518 Ry

     iteration #  5     ecut=    12.00 Ry     beta=0.70
     Davidson diagonalization with overlap
     ethr =  3.15E-07,  avg # of iterations =  3.0

     total cpu time spent up to now is        1.2 secs

     total energy              =     -15.87334237 Ry
     Harris-Foulkes estimate   =     -15.87334380 Ry
     estimated scf accuracy    <       0.00000297 Ry

     iteration #  6     ecut=    12.00 Ry     beta=0.70
     Davidson diagonalization with overlap
     ethr =  3.71E-08,  avg # of iterations =  2.0

     total cpu time spent up to now is        1.2 secs

     End of self-consistent calculation

          k = 0.2971 0.2936 0.8391 (   185 PWs)   bands (ev):

    -1.6754   1.9329   3.1426   3.9783

          k = 0.3106 0.3120 0.2707 (   182 PWs)   bands (ev):

    -3.8957   4.8320   5.6237   5.9119

     highest occupied level (ev):     5.9119

!    total energy              =     -15.87334287 Ry
     Harris-Foulkes estimate   =     -15.87334288 Ry
     estimated scf accuracy    <       0.00000003 Ry

     The total energy is the sum of the following terms:

     one-electron contribution =       6.02032100 Ry
     hartree contribution      =       0.75814183 Ry
     xc contribution           =      -4.80475144 Ry
     ewald contribution        =     -17.84705427 Ry

     convergence has been achieved in   6 iterations

     Forces acting on atoms (Ry/au):

     atom    1 type  1   force =     0.03887194    0.04273179   -0.04623345
     atom    2 type  1   force =    -0.03887194   -0.04273179    0.04623345

     Total force =     0.104638     Total SCF correction =     0.000095


     entering subroutine stress ...

          total   stress  (Ry/bohr**3)                   (kbar)     P=  -92.37
   0.00023460   0.00125572   0.00018851         34.51    184.72     27.73
   0.00125572   0.00036706   0.00015069        184.72     54.00     22.17
   0.00018851   0.00015069  -0.00248549         27.73     22.17   -365.63


     number of scf cycles    =   7
     number of bfgs steps    =   6

     enthalpy old            =     -15.8501057766 Ry
     enthalpy new            =     -15.8733428748 Ry

     CASE: enthalpy_new < enthalpy_old

     new trust radius        =       0.3068684157 bohr
     new conv_thr            =       0.0000004623 Ry

     new unit-cell volume =    222.32679 a.u.^3 (    32.94543 Ang^3 )

CELL_PARAMETERS (alat= 10.20000000)
  -0.162288808   0.554716680   0.426866218
   0.558825456  -0.159069540   0.418481402
   0.369352273   0.359666304   0.040608061

ATOMIC_POSITIONS (alat)
Si       0.002847852   0.004066990  -0.057142778
Si       0.187761943   0.184562888   0.281402843



     Writing output data file pwscf.save
     NEW-OLD atomic charge density approx. for the potential
     NEW k-points:
   0.2956733   0.2897870   0.9107177   1.5000000
   0.3274474   0.3292568   0.2833070   0.5000000
     extrapolated charge    7.42847, renormalised to    8.00000

     total cpu time spent up to now is        1.3 secs

     Self-consistent Calculation

     iteration #  1     ecut=    12.00 Ry     beta=0.70
     Davidson diagonalization with overlap
     ethr =  1.00E-06,  avg # of iterations =  7.0

     total cpu time spent up to now is        1.3 secs

     total energy              =     -15.88146537 Ry
     Harris-Foulkes estimate   =     -15.51062638 Ry
     estimated scf accuracy    <       0.00900665 Ry

     iteration #  2     ecut=    12.00 Ry     beta=0.70
     Davidson diagonalization with overlap
     ethr =  1.13E-04,  avg # of iterations =  3.0

     total cpu time spent up to now is        1.3 secs

     total energy              =     -15.88288270 Ry
     Harris-Foulkes estimate   =     -15.88529018 Ry
     estimated scf accuracy    <       0.00474936 Ry

     iteration #  3     ecut=    12.00 Ry     beta=0.70
     Davidson diagonalization with overlap
     ethr =  5.94E-05,  avg # of iterations =  2.0

     total cpu time spent up to now is        1.3 secs

     total energy              =     -15.88383741 Ry
     Harris-Foulkes estimate   =     -15.88381754 Ry
     estimated scf accuracy    <       0.00009523 Ry

     iteration #  4     ecut=    12.00 Ry     beta=0.70
     Davidson diagonalization with overlap
     ethr =  1.19E-06,  avg # of iterations =  3.0

     total cpu time spent up to now is        1.3 secs

     total energy              =     -15.88385382 Ry
     Harris-Foulkes estimate   =     -15.88386159 Ry
     estimated scf accuracy    <       0.00002018 Ry

     iteration #  5     ecut=    12.00 Ry     beta=0.70
     Davidson diagonalization with overlap
     ethr =  2.52E-07,  avg # of iterations =  2.0

     total cpu time spent up to now is        1.3 secs

     End of self-consistent calculation

          k = 0.2957 0.2898 0.9107 (   185 PWs)   bands (ev):

    -1.0711   1.5403   3.7514   5.3805

          k = 0.3274 0.3293 0.2833 (   182 PWs)   bands (ev):

    -3.3750   4.4430   7.1529   7.6206

     highest occupied level (ev):     7.6206

!    total energy              =     -15.88385711 Ry
     Harris-Foulkes estimate   =     -15.88385712 Ry
     estimated scf accuracy    <       0.00000005 Ry

     The total energy is the sum of the following terms:

     one-electron contribution =       6.94502281 Ry
     hartree contribution      =       0.48953275 Ry
     xc contribution           =      -4.81896423 Ry
     ewald contribution        =     -18.49944844 Ry

     convergence has been achieved in   5 iterations

     Forces acting on atoms (Ry/au):

     atom    1 type  1   force =     0.05432748    0.06062746   -0.07697455
     atom    2 type  1   force =    -0.05432748   -0.06062746    0.07697455

     Total force =     0.158444     Total SCF correction =     0.000067


     entering subroutine stress ...

          total   stress  (Ry/bohr**3)                   (kbar)     P= -188.93
  -0.00046161   0.00350922   0.00020847        -67.90    516.22     30.67
   0.00350922  -0.00016403   0.00007566        516.22    -24.13     11.13
   0.00020847   0.00007566  -0.00322732         30.67     11.13   -474.76


     number of scf cycles    =   8
     number of bfgs steps    =   7

     enthalpy old            =     -15.8733428748 Ry
     enthalpy new            =     -15.8838571085 Ry

     CASE: enthalpy_new < enthalpy_old

     new trust radius        =       0.1542713717 bohr
     new conv_thr            =       0.0000007697 Ry

     new unit-cell volume =    235.56159 a.u.^3 (    34.90663 Ang^3 )

CELL_PARAMETERS (alat= 10.20000000)
  -0.142629433   0.547196773   0.442447194
   0.550956950  -0.140584161   0.435320864
   0.386264051   0.377882787   0.034254968

ATOMIC_POSITIONS (alat)
Si       0.003284039   0.004123938  -0.050670368
Si       0.194465461   0.191732687   0.281594671



     Writing output data file pwscf.save
     NEW-OLD atomic charge density approx. for the potential
     NEW k-points:
   0.2909047   0.2861542   0.8733896   1.5000000
   0.3151225   0.3167670   0.2758503   0.5000000
     extrapolated charge    8.44942, renormalised to    8.00000

     total cpu time spent up to now is        1.5 secs

     Self-consistent Calculation

     iteration #  1     ecut=    12.00 Ry     beta=0.70
     Davidson diagonalization with overlap
     ethr =  1.00E-06,  avg # of iterations =  6.0

     total cpu time spent up to now is        1.5 secs

     total energy              =     -15.88675984 Ry
     Harris-Foulkes estimate   =     -16.17846960 Ry
     estimated scf accuracy    <       0.00423740 Ry

     iteration #  2     ecut=    12.00 Ry     beta=0.70
     Davidson diagonalization with overlap
     ethr =  5.30E-05,  avg # of iterations =  3.5

     total cpu time spent up to now is        1.5 secs

     total energy              =     -15.88863036 Ry
     Harris-Foulkes estimate   =     -15.89049259 Ry
     estimated scf accuracy    <       0.00429592 Ry

     iteration #  3     ecut=    12.00 Ry     beta=0.70
     Davidson diagonalization with overlap
     ethr =  5.30E-05,  avg # of iterations =  2.0

     total cpu time spent up to now is        1.5 secs

     total energy              =     -15.88889370 Ry
     Harris-Foulkes estimate   =     -15.88907543 Ry
     estimated scf accuracy    <       0.00032337 Ry

     iteration #  4     ecut=    12.00 Ry     beta=0.70
     Davidson diagonalization with overlap
     ethr =  4.04E-06,  avg # of iterations =  3.0

     total cpu time spent up to now is        1.5 secs

     total energy              =     -15.88901686 Ry
     Harris-Foulkes estimate   =     -15.88903247 Ry
     estimated scf accuracy    <       0.00003306 Ry

     iteration #  5     ecut=    12.00 Ry     beta=0.70
     Davidson diagonalization with overlap
     ethr =  4.13E-07,  avg # of iterations =  2.0

     total cpu time spent up to now is        1.5 secs

     End of self-consistent calculation

          k = 0.2909 0.2862 0.8734 (   185 PWs)   bands (ev):

    -1.4794   1.5556   3.2482   4.4315

          k = 0.3151 0.3168 0.2759 (   182 PWs)   bands (ev):

    -3.7187   4.3827   6.1069   6.5307

     highest occupied level (ev):     6.5307

!    total energy              =     -15.88902182 Ry
     Harris-Foulkes estimate   =     -15.88902201 Ry
     estimated scf accuracy    <       0.00000053 Ry

     The total energy is the sum of the following terms:

     one-electron contribution =       6.42050665 Ry
     hartree contribution      =       0.56677457 Ry
     xc contribution           =      -4.76337693 Ry
     ewald contribution        =     -18.11292610 Ry

     convergence has been achieved in   5 iterations

     Forces acting on atoms (Ry/au):

     atom    1 type  1   force =     0.04552425    0.05076928   -0.05307405
     atom    2 type  1   force =    -0.04552425   -0.05076928    0.05307405

     Total force =     0.122203     Total SCF correction =     0.000470


     entering subroutine stress ...

          total   stress  (Ry/bohr**3)                   (kbar)     P= -184.96
  -0.00033074   0.00229762   0.00022283        -48.65    337.99     32.78
   0.00229762  -0.00010659   0.00013781        337.99    -15.68     20.27
   0.00022283   0.00013781  -0.00333469         32.78     20.27   -490.55


     number of scf cycles    =   9
     number of bfgs steps    =   8

     enthalpy old            =     -15.8838571085 Ry
     enthalpy new            =     -15.8890218162 Ry

     CASE: enthalpy_new < enthalpy_old

     new trust radius        =       0.0382790182 bohr
     new conv_thr            =       0.0000005165 Ry

     new unit-cell volume =    235.26608 a.u.^3 (    34.86284 Ang^3 )

CELL_PARAMETERS (alat= 10.20000000)
  -0.146579232   0.552046557   0.441130591
   0.556230412  -0.144427667   0.433706758
   0.384773587   0.375777343   0.038603631

ATOMIC_POSITIONS (alat)
Si       0.003886391   0.004353230  -0.053120624
Si       0.193829995   0.191247010   0.284366225



     Writing output data file pwscf.save
     NEW-OLD atomic charge density approx. for the potential
     NEW k-points:
   0.2870709   0.2821311   0.8792158   1.5000000
   0.3149826   0.3167255   0.2760181   0.5000000
     extrapolated charge    7.98995, renormalised to    8.00000

     total cpu time spent up to now is        1.6 secs

     Self-consistent Calculation

     iteration #  1     ecut=    12.00 Ry     beta=0.70
     Davidson diagonalization with overlap
     ethr =  1.00E-06,  avg # of iterations =  5.0

     total cpu time spent up to now is        1.6 secs

     total energy              =     -15.89072040 Ry
     Harris-Foulkes estimate   =     -15.88436602 Ry
     estimated scf accuracy    <       0.00019817 Ry

     iteration #  2     ecut=    12.00 Ry     beta=0.70
     Davidson diagonalization with overlap
     ethr =  2.48E-06,  avg # of iterations =  2.0

     total cpu time spent up to now is        1.7 secs

     total energy              =     -15.89074288 Ry
     Harris-Foulkes estimate   =     -15.89074805 Ry
     estimated scf accuracy    <       0.00001122 Ry

     iteration #  3     ecut=    12.00 Ry     beta=0.70
     Davidson diagonalization with overlap
     ethr =  1.40E-07,  avg # of iterations =  2.0

     total cpu time spent up to now is        1.7 secs

     total energy              =     -15.89074559 Ry
     Harris-Foulkes estimate   =     -15.89074602 Ry
     estimated scf accuracy    <       0.00000120 Ry

     iteration #  4     ecut=    12.00 Ry     beta=0.70
     Davidson diagonalization with overlap
     ethr =  1.50E-08,  avg # of iterations =  2.0

     total cpu time spent up to now is        1.7 secs

     End of self-consistent calculation

          k = 0.2871 0.2821 0.8792 (   185 PWs)   bands (ev):

    -1.4528   1.4271   3.2870   4.5060

          k = 0.3150 0.3167 0.2760 (   182 PWs)   bands (ev):

    -3.6988   4.2980   6.1724   6.6917

     highest occupied level (ev):     6.6917

!    total energy              =     -15.89074583 Ry
     Harris-Foulkes estimate   =     -15.89074583 Ry
     estimated scf accuracy    <       0.00000002 Ry

     The total energy is the sum of the following terms:

     one-electron contribution =       6.48145722 Ry
     hartree contribution      =       0.53564969 Ry
     xc contribution           =      -4.75664497 Ry
     ewald contribution        =     -18.15120777 Ry

     convergence has been achieved in   4 iterations

     Forces acting on atoms (Ry/au):

     atom    1 type  1   force =     0.04716925    0.05209241   -0.05232145
     atom    2 type  1   force =    -0.04716925   -0.05209241    0.05232145

     Total force =     0.123904     Total SCF correction =     0.000046


     entering subroutine stress ...

          total   stress  (Ry/bohr**3)                   (kbar)     P= -203.75
  -0.00048507   0.00249035   0.00019681        -71.36    366.34     28.95
   0.00249035  -0.00023426   0.00009892        366.34    -34.46     14.55
   0.00019681   0.00009892  -0.00343580         28.95     14.55   -505.42


     number of scf cycles    =  10
     number of bfgs steps    =   9

     enthalpy old            =     -15.8890218162 Ry
     enthalpy new            =     -15.8907458331 Ry

     CASE: enthalpy_new < enthalpy_old

     new trust radius        =       0.0426785220 bohr
     new conv_thr            =       0.0000001724 Ry

     new unit-cell volume =    234.63553 a.u.^3 (    34.76940 Ang^3 )

CELL_PARAMETERS (alat= 10.20000000)
  -0.149889241   0.555936840   0.440993661
   0.560774250  -0.147869944   0.433384150
   0.383170833   0.373585276   0.044400309

ATOMIC_POSITIONS (alat)
Si       0.005061813   0.004583050  -0.055432136
Si       0.192571793   0.190597487   0.287979849



     Writing output data file pwscf.save
     NEW-OLD atomic charge density approx. for the potential
     NEW k-points:
   0.2814967   0.2764788   0.8843856   1.5000000
   0.3143836   0.3162626   0.2760540   0.5000000
     extrapolated charge    7.97850, renormalised to    8.00000

     total cpu time spent up to now is        1.8 secs

     Self-consistent Calculation

     iteration #  1     ecut=    12.00 Ry     beta=0.70
     Davidson diagonalization with overlap
     ethr =  1.00E-06,  avg # of iterations =  5.5

     total cpu time spent up to now is        1.8 secs

     total energy              =     -15.89247600 Ry
     Harris-Foulkes estimate   =     -15.87865804 Ry
     estimated scf accuracy    <       0.00021715 Ry

     iteration #  2     ecut=    12.00 Ry     beta=0.70
     Davidson diagonalization with overlap
     ethr =  2.71E-06,  avg # of iterations =  2.0

     total cpu time spent up to now is        1.8 secs

     total energy              =     -15.89250044 Ry
     Harris-Foulkes estimate   =     -15.89250399 Ry
     estimated scf accuracy    <       0.00000869 Ry

     iteration #  3     ecut=    12.00 Ry     beta=0.70
     Davidson diagonalization with overlap
     ethr =  1.09E-07,  avg # of iterations =  2.0

     total cpu time spent up to now is        1.8 secs

     total energy              =     -15.89250260 Ry
     Harris-Foulkes estimate   =     -15.89250291 Ry
     estimated scf accuracy    <       0.00000092 Ry

     iteration #  4     ecut=    12.00 Ry     beta=0.70
     Davidson diagonalization with overlap
     ethr =  1.15E-08,  avg # of iterations =  2.0

     total cpu time spent up to now is        1.8 secs

     End of self-consistent calculation

          k = 0.2815 0.2765 0.8844 (   185 PWs)   bands (ev):

    -1.4166   1.3033   3.3425   4.5872

          k = 0.3144 0.3163 0.2761 (   182 PWs)   bands (ev):

    -3.6785   4.2468   6.2349   6.8737

     highest occupied level (ev):     6.8737

!    total energy              =     -15.89250280 Ry
     Harris-Foulkes estimate   =     -15.89250281 Ry
     estimated scf accuracy    <       0.00000004 Ry

     The total energy is the sum of the following terms:

     one-electron contribution =       6.54742911 Ry
     hartree contribution      =       0.50681020 Ry
     xc contribution           =      -4.75280793 Ry
     ewald contribution        =     -18.19393419 Ry

     convergence has been achieved in   4 iterations

     Forces acting on atoms (Ry/au):

     atom    1 type  1   force =     0.04866252    0.05233425   -0.05120022
     atom    2 type  1   force =    -0.04866252   -0.05233425    0.05120022

     Total force =     0.124325     Total SCF correction =     0.000128


     entering subroutine stress ...

          total   stress  (Ry/bohr**3)                   (kbar)     P= -220.56
  -0.00063104   0.00267002   0.00017080        -92.83    392.77     25.13
   0.00267002  -0.00034835   0.00005819        392.77    -51.24      8.56
   0.00017080   0.00005819  -0.00351859         25.13      8.56   -517.60


     number of scf cycles    =  11
     number of bfgs steps    =  10

     enthalpy old            =     -15.8907458331 Ry
     enthalpy new            =     -15.8925028050 Ry

     CASE: enthalpy_new < enthalpy_old

     new trust radius        =       0.0648338831 bohr
     new conv_thr            =       0.0000001757 Ry

     new unit-cell volume =    233.56091 a.u.^3 (    34.61016 Ang^3 )

CELL_PARAMETERS (alat= 10.20000000)
  -0.153130406   0.559409594   0.442879923
   0.565448300  -0.151748972   0.435283216
   0.381085560   0.370959805   0.054391223

ATOMIC_POSITIONS (alat)
Si       0.007729646   0.004723552  -0.058179388
Si       0.189753540   0.189714645   0.294131715



     Writing output data file pwscf.save
     NEW-OLD atomic charge density approx. for the potential
     NEW k-points:
   0.2710301   0.2661343   0.8899585   1.5000000
   0.3125840   0.3146786   0.2760776   0.5000000
     extrapolated charge    7.96320, renormalised to    8.00000

     total cpu time spent up to now is        1.9 secs

     Self-consistent Calculation

     iteration #  1     ecut=    12.00 Ry     beta=0.70
     Davidson diagonalization with overlap
     ethr =  1.00E-06,  avg # of iterations =  5.5

     total cpu time spent up to now is        1.9 secs

     total energy              =     -15.89530440 Ry
     Harris-Foulkes estimate   =     -15.87140610 Ry
     estimated scf accuracy    <       0.00045336 Ry

     iteration #  2     ecut=    12.00 Ry     beta=0.70
     Davidson diagonalization with overlap
     ethr =  5.67E-06,  avg # of iterations =  2.0

     total cpu time spent up to now is        2.0 secs

     total energy              =     -15.89536543 Ry
     Harris-Foulkes estimate   =     -15.89537727 Ry
     estimated scf accuracy    <       0.00002464 Ry

     iteration #  3     ecut=    12.00 Ry     beta=0.70
     Davidson diagonalization with overlap
     ethr =  3.08E-07,  avg # of iterations =  2.0

     total cpu time spent up to now is        2.0 secs

     total energy              =     -15.89537174 Ry
     Harris-Foulkes estimate   =     -15.89537255 Ry
     estimated scf accuracy    <       0.00000229 Ry

     iteration #  4     ecut=    12.00 Ry     beta=0.70
     Davidson diagonalization with overlap
     ethr =  2.86E-08,  avg # of iterations =  2.5

     total cpu time spent up to now is        2.0 secs

     End of self-consistent calculation

          k = 0.2710 0.2661 0.8900 (   185 PWs)   bands (ev):

    -1.3600   1.1479   3.4283   4.6866

          k = 0.3126 0.3147 0.2761 (   182 PWs)   bands (ev):

    -3.6577   4.2261   6.2869   7.1254

     highest occupied level (ev):     7.1254

!    total energy              =     -15.89537225 Ry
     Harris-Foulkes estimate   =     -15.89537226 Ry
     estimated scf accuracy    <       0.00000007 Ry

     The total energy is the sum of the following terms:

     one-electron contribution =       6.63302165 Ry
     hartree contribution      =       0.47312875 Ry
     xc contribution           =      -4.75092267 Ry
     ewald contribution        =     -18.25059999 Ry

     convergence has been achieved in   4 iterations

     Forces acting on atoms (Ry/au):

     atom    1 type  1   force =     0.05057672    0.05041160   -0.04861620
     atom    2 type  1   force =    -0.05057672   -0.05041160    0.04861620

     Total force =     0.122171     Total SCF correction =     0.000170


     entering subroutine stress ...

          total   stress  (Ry/bohr**3)                   (kbar)     P= -239.73
  -0.00080244   0.00286842   0.00013206       -118.04    421.96     19.43
   0.00286842  -0.00047891  -0.00000149        421.96    -70.45     -0.22
   0.00013206  -0.00000149  -0.00360769         19.43     -0.22   -530.71


     number of scf cycles    =  12
     number of bfgs steps    =  11

     enthalpy old            =     -15.8925028050 Ry
     enthalpy new            =     -15.8953722539 Ry

     CASE: enthalpy_new < enthalpy_old

     new trust radius        =       0.0986114193 bohr
     new conv_thr            =       0.0000002869 Ry

     new unit-cell volume =    231.95684 a.u.^3 (    34.37246 Ang^3 )

CELL_PARAMETERS (alat= 10.20000000)
  -0.156054567   0.561355991   0.448000259
   0.569529126  -0.156269708   0.440880622
   0.378474434   0.368064357   0.070506584

ATOMIC_POSITIONS (alat)
Si       0.013155065   0.004328420  -0.061231410
Si       0.183979377   0.188751325   0.303844458



     Writing output data file pwscf.save
     NEW-OLD atomic charge density approx. for the potential
     NEW k-points:
   0.2529395   0.2486216   0.8960419   1.5000000
   0.3087104   0.3111552   0.2766610   0.5000000
     extrapolated charge    7.94468, renormalised to    8.00000

     total cpu time spent up to now is        2.1 secs

     Self-consistent Calculation

     iteration #  1     ecut=    12.00 Ry     beta=0.70
     Davidson diagonalization with overlap
     ethr =  1.00E-06,  avg # of iterations =  6.5

     total cpu time spent up to now is        2.1 secs

     total energy              =     -15.90010987 Ry
     Harris-Foulkes estimate   =     -15.86388173 Ry
     estimated scf accuracy    <       0.00102888 Ry

     iteration #  2     ecut=    12.00 Ry     beta=0.70
     Davidson diagonalization with overlap
     ethr =  1.29E-05,  avg # of iterations =  2.5

     total cpu time spent up to now is        2.1 secs

     total energy              =     -15.90028324 Ry
     Harris-Foulkes estimate   =     -15.90033231 Ry
     estimated scf accuracy    <       0.00009379 Ry

     iteration #  3     ecut=    12.00 Ry     beta=0.70
     Davidson diagonalization with overlap
     ethr =  1.17E-06,  avg # of iterations =  2.5

     total cpu time spent up to now is        2.1 secs

     total energy              =     -15.90030739 Ry
     Harris-Foulkes estimate   =     -15.90030889 Ry
     estimated scf accuracy    <       0.00000565 Ry

     iteration #  4     ecut=    12.00 Ry     beta=0.70
     Davidson diagonalization with overlap
     ethr =  7.06E-08,  avg # of iterations =  2.0

     total cpu time spent up to now is        2.1 secs

     End of self-consistent calculation

          k = 0.2529 0.2486 0.8960 (   185 PWs)   bands (ev):

    -1.2714   0.9567   3.5447   4.7979

          k = 0.3087 0.3112 0.2767 (   182 PWs)   bands (ev):

    -3.6418   4.2562   6.2975   7.4527

     highest occupied level (ev):     7.4527

!    total energy              =     -15.90030854 Ry
     Harris-Foulkes estimate   =     -15.90030848 Ry
     estimated scf accuracy    <       0.00000011 Ry

     The total energy is the sum of the following terms:

     one-electron contribution =       6.73403972 Ry
     hartree contribution      =       0.43782249 Ry
     xc contribution           =      -4.75288559 Ry
     ewald contribution        =     -18.31928516 Ry

     convergence has been achieved in   4 iterations

     Forces acting on atoms (Ry/au):

     atom    1 type  1   force =     0.05286746    0.04345737   -0.04267757
     atom    2 type  1   force =    -0.05286746   -0.04345737    0.04267757

     Total force =     0.114060     Total SCF correction =     0.000154


     entering subroutine stress ...

          total   stress  (Ry/bohr**3)                   (kbar)     P= -258.60
  -0.00097456   0.00306595   0.00006878       -143.36    451.02     10.12
   0.00306595  -0.00061187  -0.00009099        451.02    -90.01    -13.39
   0.00006878  -0.00009099  -0.00368742         10.12    -13.39   -542.44


     number of scf cycles    =  13
     number of bfgs steps    =  12

     enthalpy old            =     -15.8953722539 Ry
     enthalpy new            =     -15.9003085378 Ry

     CASE: enthalpy_new < enthalpy_old

     new trust radius        =       0.1499009906 bohr
     new conv_thr            =       0.0000004936 Ry

     new unit-cell volume =    230.07151 a.u.^3 (    34.09308 Ang^3 )

CELL_PARAMETERS (alat= 10.20000000)
  -0.158621081   0.560601418   0.457905215
   0.572609369  -0.162084140   0.452108908
   0.375623708   0.365213405   0.095599243

ATOMIC_POSITIONS (alat)
Si       0.023525582   0.002518033  -0.064360718
Si       0.173039063   0.188200786   0.318471627



     Writing output data file pwscf.save
     NEW-OLD atomic charge density approx. for the potential
     NEW k-points:
   0.2228906   0.2200375   0.9030727   1.5000000
   0.3011378   0.3042161   0.2787917   0.5000000
     extrapolated charge    7.93445, renormalised to    8.00000

     total cpu time spent up to now is        2.2 secs

     Self-consistent Calculation

     iteration #  1     ecut=    12.00 Ry     beta=0.70
     Davidson diagonalization with overlap
     ethr =  1.00E-06,  avg # of iterations =  6.5

     total cpu time spent up to now is        2.3 secs

     total energy              =     -15.90837057 Ry
     Harris-Foulkes estimate   =     -15.86555667 Ry
     estimated scf accuracy    <       0.00247156 Ry

     iteration #  2     ecut=    12.00 Ry     beta=0.70
     Davidson diagonalization with overlap
     ethr =  3.09E-05,  avg # of iterations =  2.5

     total cpu time spent up to now is        2.3 secs

     total energy              =     -15.90887912 Ry
     Harris-Foulkes estimate   =     -15.90906764 Ry
     estimated scf accuracy    <       0.00036157 Ry

     iteration #  3     ecut=    12.00 Ry     beta=0.70
     Davidson diagonalization with overlap
     ethr =  4.52E-06,  avg # of iterations =  2.5

     total cpu time spent up to now is        2.3 secs

     total energy              =     -15.90896775 Ry
     Harris-Foulkes estimate   =     -15.90896704 Ry
     estimated scf accuracy    <       0.00001059 Ry

     iteration #  4     ecut=    12.00 Ry     beta=0.70
     Davidson diagonalization with overlap
     ethr =  1.32E-07,  avg # of iterations =  2.0

     total cpu time spent up to now is        2.3 secs

     End of self-consistent calculation

          k = 0.2229 0.2200 0.9031 (   185 PWs)   bands (ev):

    -1.1430   0.7150   3.6630   4.8949

          k = 0.3011 0.3042 0.2788 (   182 PWs)   bands (ev):

    -3.6513   4.3538   6.2110   7.8250

     highest occupied level (ev):     7.8250

!    total energy              =     -15.90896968 Ry
     Harris-Foulkes estimate   =     -15.90896946 Ry
     estimated scf accuracy    <       0.00000023 Ry

     The total energy is the sum of the following terms:

     one-electron contribution =       6.82089055 Ry
     hartree contribution      =       0.41218269 Ry
     xc contribution           =      -4.76098549 Ry
     ewald contribution        =     -18.38105744 Ry

     convergence has been achieved in   4 iterations

     Forces acting on atoms (Ry/au):

     atom    1 type  1   force =     0.05472281    0.02650403   -0.02780896
     atom    2 type  1   force =    -0.05472281   -0.02650403    0.02780896

     Total force =     0.094556     Total SCF correction =     0.000165


     entering subroutine stress ...

          total   stress  (Ry/bohr**3)                   (kbar)     P= -271.92
  -0.00110840   0.00320435  -0.00003998       -163.05    471.38     -5.88
   0.00320435  -0.00071908  -0.00022562        471.38   -105.78    -33.19
  -0.00003998  -0.00022562  -0.00371791         -5.88    -33.19   -546.92


     number of scf cycles    =  14
     number of bfgs steps    =  13

     enthalpy old            =     -15.9003085378 Ry
     enthalpy new            =     -15.9089696801 Ry

     CASE: enthalpy_new < enthalpy_old

     new trust radius        =       0.2274236329 bohr
     new conv_thr            =       0.0000005472 Ry

     new unit-cell volume =    228.63677 a.u.^3 (    33.88047 Ang^3 )

CELL_PARAMETERS (alat= 10.20000000)
  -0.160845268   0.555931021   0.474856836
   0.574638104  -0.170152299   0.471724274
   0.373205896   0.362942606   0.134037498

ATOMIC_POSITIONS (alat)
Si       0.042284181  -0.002011625  -0.066780238
Si       0.153637410   0.188946625   0.339567192



     Writing output data file pwscf.save
     NEW-OLD atomic charge density approx. for the potential
     NEW k-points:
   0.1742451   0.1743165   0.9110923   1.5000000
   0.2870614   0.2912998   0.2835954   0.5000000
     extrapolated charge    7.94980, renormalised to    8.00000

     total cpu time spent up to now is        2.4 secs

     Self-consistent Calculation

     iteration #  1     ecut=    12.00 Ry     beta=0.70
     Davidson diagonalization with overlap
     ethr =  1.00E-06,  avg # of iterations =  8.0

     total cpu time spent up to now is        2.4 secs

     total energy              =     -15.92269030 Ry
     Harris-Foulkes estimate   =     -15.89189972 Ry
     estimated scf accuracy    <       0.00603691 Ry

     iteration #  2     ecut=    12.00 Ry     beta=0.70
     Davidson diagonalization with overlap
     ethr =  7.55E-05,  avg # of iterations =  2.5

     total cpu time spent up to now is        2.4 secs

     total energy              =     -15.92406211 Ry
     Harris-Foulkes estimate   =     -15.92458700 Ry
     estimated scf accuracy    <       0.00103986 Ry

     iteration #  3     ecut=    12.00 Ry     beta=0.70
     Davidson diagonalization with overlap
     ethr =  1.30E-05,  avg # of iterations =  2.0

     total cpu time spent up to now is        2.4 secs

     total energy              =     -15.92430470 Ry
     Harris-Foulkes estimate   =     -15.92429384 Ry
     estimated scf accuracy    <       0.00002034 Ry

     iteration #  4     ecut=    12.00 Ry     beta=0.70
     Davidson diagonalization with overlap
     ethr =  2.54E-07,  avg # of iterations =  3.0

     total cpu time spent up to now is        2.5 secs

     End of self-consistent calculation

          k = 0.1742 0.1743 0.9111 (   185 PWs)   bands (ev):

    -1.0336   0.4814   3.6752   4.9140

          k = 0.2871 0.2913 0.2836 (   182 PWs)   bands (ev):

    -3.7387   4.5574   5.9667   8.0682

     highest occupied level (ev):     8.0682

!    total energy              =     -15.92430936 Ry
     Harris-Foulkes estimate   =     -15.92430890 Ry
     estimated scf accuracy    <       0.00000051 Ry

     The total energy is the sum of the following terms:

     one-electron contribution =       6.80305450 Ry
     hartree contribution      =       0.43117738 Ry
     xc contribution           =      -4.78095770 Ry
     ewald contribution        =     -18.37758354 Ry

     convergence has been achieved in   4 iterations

     Forces acting on atoms (Ry/au):

     atom    1 type  1   force =     0.05189740   -0.00316294    0.00273322
     atom    2 type  1   force =    -0.05189740    0.00316294   -0.00273322

     Total force =     0.073632     Total SCF correction =     0.000184


     entering subroutine stress ...

          total   stress  (Ry/bohr**3)                   (kbar)     P= -268.10
  -0.00111369   0.00306268  -0.00018411       -163.83    450.54    -27.08
   0.00306268  -0.00070582  -0.00037866        450.54   -103.83    -55.70
  -0.00018411  -0.00037866  -0.00364802        -27.08    -55.70   -536.64


     number of scf cycles    =  15
     number of bfgs steps    =  14

     enthalpy old            =     -15.9089696801 Ry
     enthalpy new            =     -15.9243093623 Ry

     CASE: enthalpy_new < enthalpy_old

     new trust radius        =       0.3438305341 bohr
     new conv_thr            =       0.0000005190 Ry

     new unit-cell volume =    228.22932 a.u.^3 (    33.82010 Ang^3 )

CELL_PARAMETERS (alat= 10.20000000)
  -0.163849272   0.546059662   0.500834987
   0.575612578  -0.182670208   0.502303324
   0.371016053   0.361248074   0.191700599

ATOMIC_POSITIONS (alat)
Si       0.073886618  -0.010798845  -0.066252059
Si       0.120982834   0.191644003   0.367486921



     Writing output data file pwscf.save
     NEW-OLD atomic charge density approx. for the potential
     NEW k-points:
   0.0984455   0.1034904   0.9207386   1.5000000
   0.2629299   0.2691309   0.2926247   0.5000000
     extrapolated charge    7.98572, renormalised to    8.00000

     total cpu time spent up to now is        2.6 secs

     Self-consistent Calculation

     iteration #  1     ecut=    12.00 Ry     beta=0.70
     Davidson diagonalization with overlap
     ethr =  1.00E-06,  avg # of iterations =  8.5

     total cpu time spent up to now is        2.6 secs

     total energy              =     -15.93547308 Ry
     Harris-Foulkes estimate   =     -15.93125549 Ry
     estimated scf accuracy    <       0.01207812 Ry

     iteration #  2     ecut=    12.00 Ry     beta=0.70
     Davidson diagonalization with overlap
     ethr =  1.51E-04,  avg # of iterations =  2.0

     total cpu time spent up to now is        2.6 secs

     total energy              =     -15.93786390 Ry
     Harris-Foulkes estimate   =     -15.93834172 Ry
     estimated scf accuracy    <       0.00114554 Ry

     iteration #  3     ecut=    12.00 Ry     beta=0.70
     Davidson diagonalization with overlap
     ethr =  1.43E-05,  avg # of iterations =  2.0

     total cpu time spent up to now is        2.6 secs

     total energy              =     -15.93813621 Ry
     Harris-Foulkes estimate   =     -15.93811674 Ry
     estimated scf accuracy    <       0.00004158 Ry

     iteration #  4     ecut=    12.00 Ry     beta=0.70
     Davidson diagonalization with overlap
     ethr =  5.20E-07,  avg # of iterations =  3.0

     total cpu time spent up to now is        2.6 secs

     total energy              =     -15.93814366 Ry
     Harris-Foulkes estimate   =     -15.93814281 Ry
     estimated scf accuracy    <       0.00000089 Ry

     iteration #  5     ecut=    12.00 Ry     beta=0.70
     Davidson diagonalization with overlap
     ethr =  1.11E-08,  avg # of iterations =  2.5

     total cpu time spent up to now is        2.6 secs

     End of self-consistent calculation

          k = 0.0984 0.1035 0.9207 (   185 PWs)   bands (ev):

    -1.2614   0.6689   3.3744   4.7542

          k = 0.2629 0.2691 0.2926 (   182 PWs)   bands (ev):

    -3.9560   4.6962   5.8981   7.7435

     highest occupied level (ev):     7.7435

!    total energy              =     -15.93814381 Ry
     Harris-Foulkes estimate   =     -15.93814382 Ry
     estimated scf accuracy    <       0.00000004 Ry

     The total energy is the sum of the following terms:

     one-electron contribution =       6.52748173 Ry
     hartree contribution      =       0.56245114 Ry
     xc contribution           =      -4.82625867 Ry
     ewald contribution        =     -18.20181801 Ry

     convergence has been achieved in   5 iterations

     Forces acting on atoms (Ry/au):

     atom    1 type  1   force =     0.00061194    0.01353767    0.04522578
     atom    2 type  1   force =    -0.00061194   -0.01353767   -0.04522578

     Total force =     0.066768     Total SCF correction =     0.000160


     entering subroutine stress ...

          total   stress  (Ry/bohr**3)                   (kbar)     P= -203.98
  -0.00074253   0.00191534  -0.00033801       -109.23    281.76    -49.72
   0.00191534   0.00013596  -0.00030912        281.76     20.00    -45.47
  -0.00033801  -0.00030912  -0.00355336        -49.72    -45.47   -522.72


     number of scf cycles    =  16
     number of bfgs steps    =  15

     enthalpy old            =     -15.9243093623 Ry
     enthalpy new            =     -15.9381438085 Ry

     CASE: enthalpy_new < enthalpy_old

     new trust radius        =       0.0990759948 bohr
     new conv_thr            =       0.0000004523 Ry

     new unit-cell volume =    229.23399 a.u.^3 (    33.96897 Ang^3 )

CELL_PARAMETERS (alat= 10.20000000)
  -0.166859007   0.543479152   0.492868450
   0.567423348  -0.183070555   0.493741027
   0.369108109   0.365630860   0.175336116

ATOMIC_POSITIONS (alat)
Si       0.065813663  -0.006152690  -0.064594096
Si       0.125751860   0.187313720   0.357634050



     Writing output data file pwscf.save
     NEW-OLD atomic charge density approx. for the potential
     NEW k-points:
   0.1186731   0.1227890   0.9223319   1.5000000
   0.2678700   0.2728233   0.2979702   0.5000000
     extrapolated charge    8.03506, renormalised to    8.00000

     total cpu time spent up to now is        2.7 secs

     Self-consistent Calculation

     iteration #  1     ecut=    12.00 Ry     beta=0.70
     Davidson diagonalization with overlap
     ethr =  1.00E-06,  avg # of iterations =  6.5

     total cpu time spent up to now is        2.8 secs

     total energy              =     -15.94802007 Ry
     Harris-Foulkes estimate   =     -15.97191568 Ry
     estimated scf accuracy    <       0.00185407 Ry

     iteration #  2     ecut=    12.00 Ry     beta=0.70
     Davidson diagonalization with overlap
     ethr =  2.32E-05,  avg # of iterations =  2.0

     total cpu time spent up to now is        2.8 secs

     total energy              =     -15.94842518 Ry
     Harris-Foulkes estimate   =     -15.94852942 Ry
     estimated scf accuracy    <       0.00020582 Ry

     iteration #  3     ecut=    12.00 Ry     beta=0.70
     Davidson diagonalization with overlap
     ethr =  2.57E-06,  avg # of iterations =  2.0

     total cpu time spent up to now is        2.8 secs

     total energy              =     -15.94847483 Ry
     Harris-Foulkes estimate   =     -15.94847331 Ry
     estimated scf accuracy    <       0.00000469 Ry

     iteration #  4     ecut=    12.00 Ry     beta=0.70
     Davidson diagonalization with overlap
     ethr =  5.86E-08,  avg # of iterations =  3.0

     total cpu time spent up to now is        2.8 secs

     End of self-consistent calculation

          k = 0.1187 0.1228 0.9223 (   185 PWs)   bands (ev):

    -1.1567   0.5773   3.4310   4.7117

          k = 0.2679 0.2728 0.2980 (   182 PWs)   bands (ev):

    -3.8843   4.7012   5.8096   7.7681

     highest occupied level (ev):     7.7681

!    total energy              =     -15.94847618 Ry
     Harris-Foulkes estimate   =     -15.94847605 Ry
     estimated scf accuracy    <       0.00000018 Ry

     The total energy is the sum of the following terms:

     one-electron contribution =       6.59690743 Ry
     hartree contribution      =       0.51450912 Ry
     xc contribution           =      -4.80348695 Ry
     ewald contribution        =     -18.25640577 Ry

     convergence has been achieved in   4 iterations

     Forces acting on atoms (Ry/au):

     atom    1 type  1   force =     0.01790311   -0.00104670    0.02720772
     atom    2 type  1   force =    -0.01790311    0.00104670   -0.02720772

     Total force =     0.046084     Total SCF correction =     0.000085


     entering subroutine stress ...

          total   stress  (Ry/bohr**3)                   (kbar)     P= -243.02
  -0.00092514   0.00216371  -0.00011015       -136.09    318.29    -16.20
   0.00216371  -0.00038081  -0.00010166        318.29    -56.02    -14.95
  -0.00011015  -0.00010166  -0.00365006        -16.20    -14.95   -536.94


     number of scf cycles    =  17
     number of bfgs steps    =  16

     enthalpy old            =     -15.9381438085 Ry
     enthalpy new            =     -15.9484761777 Ry

     CASE: enthalpy_new < enthalpy_old

     new trust radius        =       0.1520605600 bohr
     new conv_thr            =       0.0000002721 Ry

     new unit-cell volume =    222.40399 a.u.^3 (    32.95687 Ang^3 )

CELL_PARAMETERS (alat= 10.20000000)
  -0.184454570   0.525663126   0.482886045
   0.539530004  -0.198276382   0.485304090
   0.351946741   0.368890250   0.174200171

ATOMIC_POSITIONS (alat)
Si       0.064987412  -0.002070169  -0.057562644
Si       0.110850178   0.175655747   0.345654138



     Writing output data file pwscf.save
     NEW-OLD atomic charge density approx. for the potential
     NEW k-points:
   0.1147796   0.1197184   0.9521086   1.5000000
   0.2676946   0.2705521   0.3263618   0.5000000
     extrapolated charge    7.75435, renormalised to    8.00000

     total cpu time spent up to now is        2.9 secs

     Self-consistent Calculation

     iteration #  1     ecut=    12.00 Ry     beta=0.70
     Davidson diagonalization with overlap
     ethr =  1.00E-06,  avg # of iterations =  6.5

     total cpu time spent up to now is        2.9 secs

     total energy              =     -15.97039048 Ry
     Harris-Foulkes estimate   =     -15.81080533 Ry
     estimated scf accuracy    <       0.00294590 Ry

     iteration #  2     ecut=    12.00 Ry     beta=0.70
     Davidson diagonalization with overlap
     ethr =  3.68E-05,  avg # of iterations =  3.0

     total cpu time spent up to now is        2.9 secs

     total energy              =     -15.97162363 Ry
     Harris-Foulkes estimate   =     -15.97221541 Ry
     estimated scf accuracy    <       0.00118569 Ry

     iteration #  3     ecut=    12.00 Ry     beta=0.70
     Davidson diagonalization with overlap
     ethr =  1.48E-05,  avg # of iterations =  2.0

     total cpu time spent up to now is        2.9 secs

     total energy              =     -15.97177293 Ry
     Harris-Foulkes estimate   =     -15.97178933 Ry
     estimated scf accuracy    <       0.00003642 Ry

     iteration #  4     ecut=    12.00 Ry     beta=0.70
     Davidson diagonalization with overlap
     ethr =  4.55E-07,  avg # of iterations =  2.5

     total cpu time spent up to now is        3.0 secs

     total energy              =     -15.97178376 Ry
     Harris-Foulkes estimate   =     -15.97178525 Ry
     estimated scf accuracy    <       0.00000266 Ry

     iteration #  5     ecut=    12.00 Ry     beta=0.70
     Davidson diagonalization with overlap
     ethr =  3.32E-08,  avg # of iterations =  2.0

     total cpu time spent up to now is        3.0 secs

     End of self-consistent calculation

          k = 0.1148 0.1197 0.9521 (   185 PWs)   bands (ev):

    -0.9051   0.9425   3.6272   4.9026

          k = 0.2677 0.2706 0.3264 (   182 PWs)   bands (ev):

    -3.6644   5.0546   6.0973   8.0366

     highest occupied level (ev):     8.0366

!    total energy              =     -15.97178431 Ry
     Harris-Foulkes estimate   =     -15.97178432 Ry
     estimated scf accuracy    <       0.00000003 Ry

     The total energy is the sum of the following terms:

     one-electron contribution =       6.80627700 Ry
     hartree contribution      =       0.50797515 Ry
     xc contribution           =      -4.83723757 Ry
     ewald contribution        =     -18.44879889 Ry

     convergence has been achieved in   5 iterations

     Forces acting on atoms (Ry/au):

     atom    1 type  1   force =     0.01839644    0.00417900    0.00228823
     atom    2 type  1   force =    -0.01839644   -0.00417900   -0.00228823

     Total force =     0.026875     Total SCF correction =     0.000105


     entering subroutine stress ...

          total   stress  (Ry/bohr**3)                   (kbar)     P= -229.04
  -0.00071198   0.00222026   0.00024762       -104.74    326.61     36.43
   0.00222026  -0.00058994   0.00047113        326.61    -86.78     69.31
   0.00024762   0.00047113  -0.00336894         36.43     69.31   -495.59


     number of scf cycles    =  18
     number of bfgs steps    =  17

     enthalpy old            =     -15.9484761777 Ry
     enthalpy new            =     -15.9717843086 Ry

     CASE: enthalpy_new < enthalpy_old

     new trust radius        =       0.2243457054 bohr
     new conv_thr            =       0.0000001840 Ry

     new unit-cell volume =    212.44521 a.u.^3 (    31.48113 Ang^3 )

CELL_PARAMETERS (alat= 10.20000000)
  -0.214666112   0.498738578   0.479435032
   0.497283575  -0.221394810   0.484027430
   0.325613273   0.371880325   0.200889832

ATOMIC_POSITIONS (alat)
Si       0.071545396  -0.000365285  -0.045166358
Si       0.079483044   0.161993668   0.338589702



     Writing output data file pwscf.save
     NEW-OLD atomic charge density approx. for the potential
     NEW k-points:
   0.0675481   0.0749080   0.9983847   1.5000000
   0.2519214   0.2531894   0.3717730   0.5000000
     extrapolated charge    7.62503, renormalised to    8.00000

     total cpu time spent up to now is        3.1 secs

     Self-consistent Calculation

     iteration #  1     ecut=    12.00 Ry     beta=0.70
     Davidson diagonalization with overlap
     ethr =  1.00E-06,  avg # of iterations =  6.5

     total cpu time spent up to now is        3.1 secs

     total energy              =     -15.99108940 Ry
     Harris-Foulkes estimate   =     -15.74767384 Ry
     estimated scf accuracy    <       0.00370125 Ry

     iteration #  2     ecut=    12.00 Ry     beta=0.70
     Davidson diagonalization with overlap
     ethr =  4.63E-05,  avg # of iterations =  3.0

     total cpu time spent up to now is        3.1 secs

     total energy              =     -15.99333395 Ry
     Harris-Foulkes estimate   =     -15.99426415 Ry
     estimated scf accuracy    <       0.00195103 Ry

     iteration #  3     ecut=    12.00 Ry     beta=0.70
     Davidson diagonalization with overlap
     ethr =  2.44E-05,  avg # of iterations =  2.0

     total cpu time spent up to now is        3.1 secs

     total energy              =     -15.99350034 Ry
     Harris-Foulkes estimate   =     -15.99355801 Ry
     estimated scf accuracy    <       0.00011561 Ry

     iteration #  4     ecut=    12.00 Ry     beta=0.70
     Davidson diagonalization with overlap
     ethr =  1.45E-06,  avg # of iterations =  2.5

     total cpu time spent up to now is        3.1 secs

     total energy              =     -15.99352887 Ry
     Harris-Foulkes estimate   =     -15.99352978 Ry
     estimated scf accuracy    <       0.00000202 Ry

     iteration #  5     ecut=    12.00 Ry     beta=0.70
     Davidson diagonalization with overlap
     ethr =  2.53E-08,  avg # of iterations =  2.0

     total cpu time spent up to now is        3.1 secs

     End of self-consistent calculation

          k = 0.0675 0.0749 0.9984 (   185 PWs)   bands (ev):

    -0.7117   1.6088   3.8788   5.0891

          k = 0.2519 0.2532 0.3718 (   182 PWs)   bands (ev):

    -3.4560   5.6191   6.3392   8.4989

     highest occupied level (ev):     8.4989

!    total energy              =     -15.99352937 Ry
     Harris-Foulkes estimate   =     -15.99352937 Ry
     estimated scf accuracy    <       0.00000005 Ry

     The total energy is the sum of the following terms:

     one-electron contribution =       7.00273623 Ry
     hartree contribution      =       0.55543993 Ry
     xc contribution           =      -4.90892986 Ry
     ewald contribution        =     -18.64277567 Ry

     convergence has been achieved in   5 iterations

     Forces acting on atoms (Ry/au):

     atom    1 type  1   force =     0.01000668    0.02153303   -0.03712496
     atom    2 type  1   force =    -0.01000668   -0.02153303    0.03712496

     Total force =     0.062323     Total SCF correction =     0.000085


     entering subroutine stress ...

          total   stress  (Ry/bohr**3)                   (kbar)     P= -157.70
  -0.00025668   0.00192562   0.00056932        -37.76    283.27     83.75
   0.00192562  -0.00057549   0.00118684        283.27    -84.66    174.59
   0.00056932   0.00118684  -0.00238383         83.75    174.59   -350.67


     number of scf cycles    =  19
     number of bfgs steps    =  18

     enthalpy old            =     -15.9717843086 Ry
     enthalpy new            =     -15.9935293732 Ry

     CASE: enthalpy_new < enthalpy_old

     new trust radius        =       0.2774273819 bohr
     new conv_thr            =       0.0000003712 Ry

     new unit-cell volume =    211.44057 a.u.^3 (    31.33226 Ang^3 )

CELL_PARAMETERS (alat= 10.20000000)
  -0.237985704   0.486635326   0.490517389
   0.472538053  -0.232947493   0.494922904
   0.312086893   0.374746073   0.243998675

ATOMIC_POSITIONS (alat)
Si       0.081993992  -0.002137576  -0.036266949
Si       0.053539105   0.158469581   0.345811773



     Writing output data file pwscf.save
     NEW-OLD atomic charge density approx. for the potential
     NEW k-points:
  -0.0002011   0.0077753   1.0146190   1.5000000
   0.2239454   0.2253099   0.3956830   0.5000000
     extrapolated charge    7.96199, renormalised to    8.00000

     total cpu time spent up to now is        3.2 secs

     Self-consistent Calculation

     iteration #  1     ecut=    12.00 Ry     beta=0.70
     Davidson diagonalization with overlap
[...]


     number of scf cycles    =  46
     number of bfgs steps    =  45

     enthalpy old            =     -16.1249880357 Ry
     enthalpy new            =     -16.1250053376 Ry

     CASE: enthalpy_new < enthalpy_old

     new trust radius        =       0.0071804882 bohr
     new conv_thr            =       0.0000000100 Ry

     new unit-cell volume =    179.46174 a.u.^3 (    26.59349 Ang^3 )

CELL_PARAMETERS (alat= 10.20000000)
  -0.477436698   0.146875518   0.420255640
   0.191334014  -0.420470784   0.458339109
   0.090679964   0.149218145   0.592722485

ATOMIC_POSITIONS (alat)
Si       0.037707694   0.043888101  -0.007496758
Si      -0.088338897  -0.076492534   0.375277009



     Writing output data file pwscf.save
     NEW-OLD atomic charge density approx. for the potential
     NEW k-points:
  -0.6526017  -0.7198069   0.7035381   1.5000000
  -0.1442289  -0.1355952   0.4794529   0.5000000
     extrapolated charge    7.99767, renormalised to    8.00000

     total cpu time spent up to now is        7.4 secs

     Self-consistent Calculation

     iteration #  1     ecut=    12.00 Ry     beta=0.70
     Davidson diagonalization with overlap
     ethr =  1.00E-06,  avg # of iterations =  3.0

     Threshold (ethr) on eigenvalues was too large:
     Diagonalizing with lowered threshold

     Davidson diagonalization with overlap
     ethr =  1.18E-08,  avg # of iterations =  2.5

     total cpu time spent up to now is        7.4 secs

     total energy              =     -16.12501441 Ry
     Harris-Foulkes estimate   =     -16.12323211 Ry
     estimated scf accuracy    <       0.00000127 Ry

     iteration #  2     ecut=    12.00 Ry     beta=0.70
     Davidson diagonalization with overlap
     ethr =  1.58E-08,  avg # of iterations =  2.5

     total cpu time spent up to now is        7.4 secs

     total energy              =     -16.12501460 Ry
     Harris-Foulkes estimate   =     -16.12501461 Ry
     estimated scf accuracy    <       0.00000004 Ry

     iteration #  3     ecut=    12.00 Ry     beta=0.70
     Davidson diagonalization with overlap
     ethr =  5.09E-10,  avg # of iterations =  2.0

     total cpu time spent up to now is        7.4 secs

     End of self-consistent calculation

          k =-0.6526-0.7198 0.7035 (   185 PWs)   bands (ev):

     2.2068   3.2928   5.1028   5.1288

          k =-0.1442-0.1356 0.4795 (   182 PWs)   bands (ev):

    -2.4182   7.8699   8.7620  10.4658

     highest occupied level (ev):    10.4658

!    total energy              =     -16.12501461 Ry
     Harris-Foulkes estimate   =     -16.12501461 Ry
     estimated scf accuracy    <          2.7E-09 Ry

     The total energy is the sum of the following terms:

     one-electron contribution =       8.77374835 Ry
     hartree contribution      =       0.25184903 Ry
     xc contribution           =      -5.08794696 Ry
     ewald contribution        =     -20.06266503 Ry

     convergence has been achieved in   3 iterations

     Forces acting on atoms (Ry/au):

     atom    1 type  1   force =    -0.00015404   -0.00019487   -0.00033309
     atom    2 type  1   force =     0.00015404    0.00019487    0.00033309

     Total force =     0.000588     Total SCF correction =     0.000008


     entering subroutine stress ...

          total   stress  (Ry/bohr**3)                   (kbar)     P=    0.09
   0.00001904  -0.00001155  -0.00001098          2.80     -1.70     -1.62
  -0.00001155  -0.00000276   0.00000550         -1.70     -0.41      0.81
  -0.00001098   0.00000550  -0.00001439         -1.62      0.81     -2.12


     number of scf cycles    =  47
     number of bfgs steps    =  46

     enthalpy old            =     -16.1250053376 Ry
     enthalpy new            =     -16.1250146094 Ry

     CASE: enthalpy_new < enthalpy_old

     new trust radius        =       0.0026706617 bohr
     new conv_thr            =       0.0000000100 Ry

     new unit-cell volume =    179.37208 a.u.^3 (    26.58020 Ang^3 )

CELL_PARAMETERS (alat= 10.20000000)
  -0.477996008   0.147137758   0.420200437
   0.190965121  -0.420209021   0.457806592
   0.090169511   0.149335158   0.592549363

ATOMIC_POSITIONS (alat)
Si       0.037793475   0.043902762  -0.007664388
Si      -0.088785002  -0.076345711   0.375253475



     Writing output data file pwscf.save
     NEW-OLD atomic charge density approx. for the potential
     NEW k-points:
  -0.6525737  -0.7205857   0.7035156   1.5000000
  -0.1441918  -0.1359940   0.4795903   0.5000000
     extrapolated charge    7.99600, renormalised to    8.00000

     total cpu time spent up to now is        7.5 secs

     Self-consistent Calculation

     iteration #  1     ecut=    12.00 Ry     beta=0.70
     Davidson diagonalization with overlap
     ethr =  1.00E-06,  avg # of iterations =  2.5

     Threshold (ethr) on eigenvalues was too large:
     Diagonalizing with lowered threshold

     Davidson diagonalization with overlap
     ethr =  4.42E-09,  avg # of iterations =  4.0

     total cpu time spent up to now is        7.6 secs

     total energy              =     -16.12501917 Ry
     Harris-Foulkes estimate   =     -16.12195360 Ry
     estimated scf accuracy    <       0.00000044 Ry

     iteration #  2     ecut=    12.00 Ry     beta=0.70
     Davidson diagonalization with overlap
     ethr =  5.54E-09,  avg # of iterations =  2.0

     total cpu time spent up to now is        7.6 secs

     total energy              =     -16.12501924 Ry
     Harris-Foulkes estimate   =     -16.12501924 Ry
     estimated scf accuracy    <       0.00000002 Ry

     iteration #  3     ecut=    12.00 Ry     beta=0.70
     Davidson diagonalization with overlap
     ethr =  2.60E-10,  avg # of iterations =  2.0

     total cpu time spent up to now is        7.6 secs

     End of self-consistent calculation

          k =-0.6526-0.7206 0.7035 (   185 PWs)   bands (ev):

     2.2153   3.2983   5.1065   5.1315

          k =-0.1442-0.1360 0.4796 (   182 PWs)   bands (ev):

    -2.4137   7.8855   8.7635  10.4740

     highest occupied level (ev):    10.4740

!    total energy              =     -16.12501924 Ry
     Harris-Foulkes estimate   =     -16.12501924 Ry
     estimated scf accuracy    <          1.2E-09 Ry

     The total energy is the sum of the following terms:

     one-electron contribution =       8.77915827 Ry
     hartree contribution      =       0.25114780 Ry
     xc contribution           =      -5.08845353 Ry
     ewald contribution        =     -20.06687179 Ry

     convergence has been achieved in   3 iterations

     Forces acting on atoms (Ry/au):

     atom    1 type  1   force =    -0.00016800   -0.00027981   -0.00001458
     atom    2 type  1   force =     0.00016800    0.00027981    0.00001458

     Total force =     0.000462     Total SCF correction =     0.000005


     entering subroutine stress ...

          total   stress  (Ry/bohr**3)                   (kbar)     P=    0.41
   0.00001307   0.00000214  -0.00000083          1.92      0.31     -0.12
   0.00000214   0.00000502   0.00000537          0.31      0.74      0.79
  -0.00000083   0.00000537  -0.00000977         -0.12      0.79     -1.44


     number of scf cycles    =  48
     number of bfgs steps    =  47

     enthalpy old            =     -16.1250146094 Ry
     enthalpy new            =     -16.1250192402 Ry

     CASE: enthalpy_new < enthalpy_old

     new trust radius        =       0.0024653954 bohr
     new conv_thr            =       0.0000000100 Ry

     new unit-cell volume =    179.38395 a.u.^3 (    26.58196 Ang^3 )

CELL_PARAMETERS (alat= 10.20000000)
  -0.478497908   0.147158409   0.420030702
   0.190614588  -0.420215139   0.457413631
   0.089828309   0.149334120   0.592381217

ATOMIC_POSITIONS (alat)
Si       0.037862074   0.043914193  -0.007711836
Si      -0.089153278  -0.076353700   0.375117211



     Writing output data file pwscf.save
     NEW-OLD atomic charge density approx. for the potential
     NEW k-points:
  -0.6523690  -0.7207718   0.7033541   1.5000000
  -0.1441888  -0.1362041   0.4796957   0.5000000
     extrapolated charge    8.00053, renormalised to    8.00000

     total cpu time spent up to now is        7.7 secs

     Self-consistent Calculation

     iteration #  1     ecut=    12.00 Ry     beta=0.70
     Davidson diagonalization with overlap
     ethr =  1.00E-06,  avg # of iterations =  1.0

     Threshold (ethr) on eigenvalues was too large:
     Diagonalizing with lowered threshold

     Davidson diagonalization with overlap
     ethr =  5.96E-10,  avg # of iterations =  5.0

     total cpu time spent up to now is        7.7 secs

     total energy              =     -16.12502061 Ry
     Harris-Foulkes estimate   =     -16.12542658 Ry
     estimated scf accuracy    <       0.00000013 Ry

     iteration #  2     ecut=    12.00 Ry     beta=0.70
     Davidson diagonalization with overlap
     ethr =  1.66E-09,  avg # of iterations =  2.0

     total cpu time spent up to now is        7.7 secs

     End of self-consistent calculation

          k =-0.6524-0.7208 0.7034 (   185 PWs)   bands (ev):

     2.2187   3.2976   5.1054   5.1307

          k =-0.1442-0.1362 0.4797 (   182 PWs)   bands (ev):

    -2.4124   7.8920   8.7613  10.4705

     highest occupied level (ev):    10.4705

!    total energy              =     -16.12502062 Ry
     Harris-Foulkes estimate   =     -16.12502062 Ry
     estimated scf accuracy    <          4.1E-09 Ry

     The total energy is the sum of the following terms:

     one-electron contribution =       8.77985571 Ry
     hartree contribution      =       0.25072898 Ry
     xc contribution           =      -5.08821494 Ry
     ewald contribution        =     -20.06739037 Ry

     convergence has been achieved in   2 iterations

     Forces acting on atoms (Ry/au):

     atom    1 type  1   force =    -0.00005289   -0.00015710    0.00005999
     atom    2 type  1   force =     0.00005289    0.00015710   -0.00005999

     Total force =     0.000249     Total SCF correction =     0.000024


     entering subroutine stress ...

          total   stress  (Ry/bohr**3)                   (kbar)     P=   -0.13
   0.00000118   0.00000018  -0.00000073          0.17      0.03     -0.11
   0.00000018   0.00000040  -0.00000040          0.03      0.06     -0.06
  -0.00000073  -0.00000040  -0.00000427         -0.11     -0.06     -0.63


     number of scf cycles    =  49
     number of bfgs steps    =  48

     enthalpy old            =     -16.1250192402 Ry
     enthalpy new            =     -16.1250206249 Ry

     CASE: enthalpy_new < enthalpy_old

     new trust radius        =       0.0017385531 bohr
     new conv_thr            =       0.0000000100 Ry

     new unit-cell volume =    179.37688 a.u.^3 (    26.58091 Ang^3 )

CELL_PARAMETERS (alat= 10.20000000)
  -0.478503930   0.147268726   0.420073018
   0.190599885  -0.420145837   0.457421551
   0.089913323   0.149459440   0.592147578

ATOMIC_POSITIONS (alat)
Si       0.037887798   0.043890634  -0.007705962
Si      -0.089163448  -0.076253918   0.375066913



     Writing output data file pwscf.save
     NEW-OLD atomic charge density approx. for the potential
     NEW k-points:
  -0.6520126  -0.7203088   0.7037068   1.5000000
  -0.1439737  -0.1359581   0.4798397   0.5000000
     extrapolated charge    7.99968, renormalised to    8.00000

     total cpu time spent up to now is        7.8 secs

     Self-consistent Calculation

     iteration #  1     ecut=    12.00 Ry     beta=0.70
     Davidson diagonalization with overlap
     ethr =  1.00E-06,  avg # of iterations =  1.0

     Threshold (ethr) on eigenvalues was too large:
     Diagonalizing with lowered threshold

     Davidson diagonalization with overlap
     ethr =  1.02E-10,  avg # of iterations =  4.5

     total cpu time spent up to now is        7.8 secs

     total energy              =     -16.12502082 Ry
     Harris-Foulkes estimate   =     -16.12477922 Ry
     estimated scf accuracy    <       0.00000004 Ry

     iteration #  2     ecut=    12.00 Ry     beta=0.70
     Davidson diagonalization with overlap
     ethr =  4.69E-10,  avg # of iterations =  2.5

     total cpu time spent up to now is        7.8 secs

     End of self-consistent calculation

          k =-0.6520-0.7203 0.7037 (   185 PWs)   bands (ev):

     2.2191   3.2969   5.1059   5.1315

          k =-0.1440-0.1360 0.4798 (   182 PWs)   bands (ev):

    -2.4122   7.8915   8.7615  10.4718

     highest occupied level (ev):    10.4718

!    total energy              =     -16.12502083 Ry
     Harris-Foulkes estimate   =     -16.12502083 Ry
     estimated scf accuracy    <          1.9E-09 Ry

     The total energy is the sum of the following terms:

     one-electron contribution =       8.77999768 Ry
     hartree contribution      =       0.25078710 Ry
     xc contribution           =      -5.08829519 Ry
     ewald contribution        =     -20.06751042 Ry

     convergence has been achieved in   2 iterations

     Forces acting on atoms (Ry/au):

     atom    1 type  1   force =    -0.00001620   -0.00002770    0.00000601
     atom    2 type  1   force =     0.00001620    0.00002770   -0.00000601

     Total force =     0.000046     Total SCF correction =     0.000020
     SCF correction compared to forces is large: reduce conv_thr to get better values


     entering subroutine stress ...

          total   stress  (Ry/bohr**3)                   (kbar)     P=    0.04
  -0.00000033   0.00000129   0.00000013         -0.05      0.19      0.02
   0.00000129   0.00000105   0.00000027          0.19      0.16      0.04
   0.00000013   0.00000027   0.00000005          0.02      0.04      0.01


     bfgs converged in  50 scf cycles and  49 bfgs steps
     (criteria: energy <  1.0E-04, force <  1.0E-03, cell <  5.0E-01)

     End of BFGS Geometry Optimization

     Final enthalpy =     -16.1250208293 Ry
Begin final coordinates
     new unit-cell volume =    179.37688 a.u.^3 (    26.58091 Ang^3 )

CELL_PARAMETERS (alat= 10.20000000)
  -0.478503930   0.147268726   0.420073018
   0.190599885  -0.420145837   0.457421551
   0.089913323   0.149459440   0.592147578

ATOMIC_POSITIONS (alat)
Si       0.037887798   0.043890634  -0.007705962
Si      -0.089163448  -0.076253918   0.375066913
End final coordinates



     A final scf calculation at the relaxed structure.
     The G-vectors are recalculated for the final unit cell
     Results may differ from those at the preceding step.

     G-vector sticks info
     --------------------
     sticks:   dense  smooth     PW     G-vecs:    dense   smooth      PW
     Sum         167     167     63                 1001     1001     227



     bravais-lattice index     =            0
     lattice parameter (alat)  =      10.2000  a.u.
     unit-cell volume          =     179.3769 (a.u.)^3
     number of atoms/cell      =            2
     number of atomic types    =            1
     number of electrons       =         8.00
     number of Kohn-Sham states=            4
     kinetic-energy cutoff     =      12.0000  Ry
     charge density cutoff     =      48.0000  Ry
     convergence threshold     =      1.0E-08
     mixing beta               =       0.7000
     number of iterations used =            8  plain     mixing
     Exchange-correlation      =  SLA  PZ   NOGX NOGC ( 1  1  0  0 0 0)

     celldm(1)=  10.200000  celldm(2)=   0.000000  celldm(3)=   0.000000
     celldm(4)=   0.000000  celldm(5)=   0.000000  celldm(6)=   0.000000

     crystal axes: (cart. coord. in units of alat)
               a(1) = (  -0.478504   0.147269   0.420073 )  
               a(2) = (   0.190600  -0.420146   0.457422 )  
               a(3) = (   0.089913   0.149459   0.592148 )  

     reciprocal axes: (cart. coord. in units 2 pi/alat)
               b(1) = ( -1.876310 -0.424390  0.392021 )  
               b(2) = ( -0.144476 -1.899743  0.501437 )  
               b(3) = (  1.442671  1.768576  1.023316 )  


     PseudoPot. # 1 for Si read from file:
     /Users/mdavezac/workspaces/data/espresso/upf_files/Si.pz-vbc.UPF
     MD5 check sum: 6dfa03ddd5817404712e03e4d12deb78
     Pseudo is Norm-conserving, Zval =  4.0
     Generated by new atomic code, or converted to UPF format
     Using radial grid of  431 points,  2 beta functions with: 
                l(1) =   0
                l(2) =   1

     atomic species   valence    mass     pseudopotential
        Si             4.00     1.00000     Si( 1.00)

     No symmetry found



   Cartesian axes

     site n.     atom                  positions (alat units)
         1           Si  tau(   1) = (   0.0378878   0.0438906  -0.0077060  )
         2           Si  tau(   2) = (  -0.0891634  -0.0762539   0.3750669  )

     number of k points=     2
                       cart. coord. in units 2pi/alat
        k(    1) = (  -0.6520126  -0.7203088   0.7037068), wk =   1.5000000
        k(    2) = (  -0.1439737  -0.1359581   0.4798397), wk =   0.5000000

     Dense  grid:     1001 G-vectors     FFT dimensions: (  15,  15,  15)

     Largest allocated arrays     est. size (Mb)     dimensions
        Kohn-Sham Wavefunctions         0.01 Mb     (     124,    4)
        NL pseudopotentials             0.02 Mb     (     124,    8)
        Each V/rho on FFT grid          0.05 Mb     (    3375)
        Each G-vector array             0.01 Mb     (    1001)
        G-vector shells                 0.00 Mb     (     501)
     Largest temporary arrays     est. size (Mb)     dimensions
        Auxiliary wavefunctions         0.03 Mb     (     124,   16)
        Each subspace H/S matrix        0.00 Mb     (      16,   16)
        Each <psi_i|beta_j> matrix      0.00 Mb     (       8,    4)
        Arrays for rho mixing           0.41 Mb     (    3375,    8)

     Initial potential from superposition of free atoms

     starting charge    7.99901, renormalised to    8.00000
     Starting wfc are    8 randomized atomic wfcs

     Writing output data file pwscf.save

     Writing output data file pwscf.save

     init_run     :      0.15s CPU      0.12s WALL (       2 calls)
     electrons    :      3.31s CPU      2.75s WALL (      50 calls)
     update_pot   :      2.20s CPU      1.69s WALL (      49 calls)
     forces       :      0.78s CPU      0.57s WALL (      50 calls)
     stress       :      1.83s CPU      1.27s WALL (      50 calls)

     Called by init_run:
     wfcinit      :      0.01s CPU      0.01s WALL (       2 calls)
     potinit      :      0.02s CPU      0.02s WALL (       2 calls)

     Called by electrons:
     c_bands      :      2.63s CPU      2.21s WALL (     210 calls)
     sum_band     :      0.38s CPU      0.28s WALL (     210 calls)
     v_of_rho     :      0.18s CPU      0.13s WALL (     253 calls)
     mix_rho      :      0.06s CPU      0.04s WALL (     210 calls)

     Called by c_bands:
     init_us_2    :      0.06s CPU      0.04s WALL (    1044 calls)
     cegterg      :      2.57s CPU      2.17s WALL (     420 calls)

     Called by sum_band:

     Called by *egterg:
     h_psi        :      1.87s CPU      1.37s WALL (    1698 calls)
     g_psi        :      0.01s CPU      0.01s WALL (    1274 calls)
     cdiaghg      :      0.54s CPU      0.69s WALL (    1582 calls)

     Called by h_psi:
     add_vuspsi   :      0.03s CPU      0.02s WALL (    1698 calls)

     General routines
     calbec       :      0.03s CPU      0.03s WALL (    2198 calls)
     fft          :      0.23s CPU      0.17s WALL (    1277 calls)
     fftw         :      1.94s CPU      1.41s WALL (   13074 calls)
     davcio       :      0.00s CPU      0.00s WALL (       4 calls)

     Parallel routines
     fft_scatter  :      0.07s CPU      0.05s WALL (   14351 calls)

     PWSCF        :    10.16s CPU         7.98s WALL


   This run was terminated on:  15:54:53   2May2016            

=------------------------------------------------------------------------------=
   JOB DONE.
=------------------------------------------------------------------------------=
