
     Program PWSCF v.5.3.0 (svn rev. 11974) starts on 30Mar2016 at 15:13:32 

     This program is part of the open-source Quantum ESPRESSO suite
     for quantum simulation of materials; please cite
         "P. Giannozzi et al., J. Phys.:Condens. Matter 21 395502 (2009);
          URL http://www.quantum-espresso.org", 
     in publications or presentations arising from this work. More details at
     http://www.quantum-espresso.org/quote

     Parallel version (MPI), running on     1 processors
     Waiting for input...
     Reading input from standard input

     Current dimensions of program PWSCF are:
     Max number of different atomic species (ntypx) = 10
     Max number of k-points (npk) =  40000
     Max angular momentum in pseudopotentials (lmaxx) =  3

     Subspace diagonalization in iterative solution of the eigenvalue problem:
     a serial algorithm will be used


     G-vector sticks info
     --------------------
     sticks:   dense  smooth     PW     G-vecs:    dense   smooth      PW
     Sum         163     163     55                 1459     1459     283



     bravais-lattice index     =            0
     lattice parameter (alat)  =      10.2000  a.u.
     unit-cell volume          =     263.4153 (a.u.)^3
     number of atoms/cell      =            2
     number of atomic types    =            1
     number of electrons       =         8.00
     number of Kohn-Sham states=            4
     kinetic-energy cutoff     =      12.0000  Ry
     charge density cutoff     =      48.0000  Ry
     convergence threshold     =      1.0E-06
     mixing beta               =       0.7000
     number of iterations used =            8  plain     mixing
     Exchange-correlation      =  SLA  PZ   NOGX NOGC ( 1  1  0  0 0 0)
     nstep                     =           50


     celldm(1)=  10.200000  celldm(2)=   0.000000  celldm(3)=   0.000000
     celldm(4)=   0.000000  celldm(5)=   0.000000  celldm(6)=   0.000000

     crystal axes: (cart. coord. in units of alat)
               a(1) = (  -0.000534   0.497381   0.496862 )  
               a(2) = (   0.500216   0.002744   0.496692 )  
               a(3) = (   0.503430   0.499677  -0.000873 )  

     reciprocal axes: (cart. coord. in units 2 pi/alat)
               b(1) = ( -0.999861  1.009122  1.001381 )  
               b(2) = (  1.001943 -1.007705  1.009836 )  
               b(3) = (  0.989766  1.002341 -1.002326 )  


     PseudoPot. # 1 for Si read from file:
     /Users/mdavezac/workspaces/pylada-light/data/upf_files/Si.pz-vbc.UPF
     MD5 check sum: 6dfa03ddd5817404712e03e4d12deb78
     Pseudo is Norm-conserving, Zval =  4.0
     Generated by new atomic code, or converted to UPF format
     Using radial grid of  431 points,  2 beta functions with: 
                l(1) =   0
                l(2) =   1

     atomic species   valence    mass     pseudopotential
        Si             4.00     1.00000     Si( 1.00)

     No symmetry found



   Cartesian axes

     site n.     atom                  positions (alat units)
         1           Si  tau(   1) = (   0.0000000   0.0000000   0.0000000  )
         2           Si  tau(   2) = (   0.2462033   0.2463873   0.2525314  )

     number of k points=     2
                       cart. coord. in units 2pi/alat
        k(    1) = (   0.2500000   0.2500000   0.7500000), wk =   1.5000000
        k(    2) = (   0.2500000   0.2500000   0.2500000), wk =   0.5000000

     Dense  grid:     1459 G-vectors     FFT dimensions: (  15,  15,  15)

     Largest allocated arrays     est. size (Mb)     dimensions
        Kohn-Sham Wavefunctions         0.01 Mb     (     186,    4)
        NL pseudopotentials             0.02 Mb     (     186,    8)
        Each V/rho on FFT grid          0.05 Mb     (    3375)
        Each G-vector array             0.01 Mb     (    1459)
        G-vector shells                 0.01 Mb     (    1459)
     Largest temporary arrays     est. size (Mb)     dimensions
        Auxiliary wavefunctions         0.05 Mb     (     186,   16)
        Each subspace H/S matrix        0.00 Mb     (      16,   16)
        Each <psi_i|beta_j> matrix      0.00 Mb     (       8,    4)
        Arrays for rho mixing           0.41 Mb     (    3375,    8)

     Initial potential from superposition of free atoms

     starting charge    7.99901, renormalised to    8.00000
     Starting wfc are    8 randomized atomic wfcs

     total cpu time spent up to now is        0.0 secs

     Self-consistent Calculation

     iteration #  1     ecut=    12.00 Ry     beta=0.70
     Davidson diagonalization with overlap
     ethr =  1.00E-02,  avg # of iterations =  2.0

     total cpu time spent up to now is        0.1 secs

     total energy              =     -15.77930832 Ry
     Harris-Foulkes estimate   =     -15.80503227 Ry
     estimated scf accuracy    <       0.08226471 Ry

     iteration #  2     ecut=    12.00 Ry     beta=0.70
     Davidson diagonalization with overlap
     ethr =  1.03E-03,  avg # of iterations =  1.0

     total cpu time spent up to now is        0.1 secs

     total energy              =     -15.78318185 Ry
     Harris-Foulkes estimate   =     -15.78365424 Ry
     estimated scf accuracy    <       0.00367367 Ry

     iteration #  3     ecut=    12.00 Ry     beta=0.70
     Davidson diagonalization with overlap
     ethr =  4.59E-05,  avg # of iterations =  2.0

     total cpu time spent up to now is        0.1 secs

     total energy              =     -15.78351559 Ry
     Harris-Foulkes estimate   =     -15.78352864 Ry
     estimated scf accuracy    <       0.00006956 Ry

     iteration #  4     ecut=    12.00 Ry     beta=0.70
     Davidson diagonalization with overlap
     ethr =  8.69E-07,  avg # of iterations =  3.0

     total cpu time spent up to now is        0.1 secs

     total energy              =     -15.78355082 Ry
     Harris-Foulkes estimate   =     -15.78355167 Ry
     estimated scf accuracy    <       0.00000233 Ry

     iteration #  5     ecut=    12.00 Ry     beta=0.70
     Davidson diagonalization with overlap
     ethr =  2.91E-08,  avg # of iterations =  2.0

     total cpu time spent up to now is        0.1 secs

     End of self-consistent calculation

          k = 0.2500 0.2500 0.7500 (   186 PWs)   bands (ev):

    -2.8768  -0.0373   2.9532   4.0774

          k = 0.2500 0.2500 0.2500 (   181 PWs)   bands (ev):

    -4.8324   2.4355   5.5146   5.8240

     highest occupied level (ev):     5.8240

!    total energy              =     -15.78355117 Ry
     Harris-Foulkes estimate   =     -15.78355117 Ry
     estimated scf accuracy    <       0.00000007 Ry

     The total energy is the sum of the following terms:

     one-electron contribution =       4.88966846 Ry
     hartree contribution      =       1.09886038 Ry
     xc contribution           =      -4.83502736 Ry
     ewald contribution        =     -16.93705265 Ry

     convergence has been achieved in   5 iterations

     Forces acting on atoms (Ry/au):

     atom    1 type  1   force =    -0.02302500   -0.02149333    0.01750929
     atom    2 type  1   force =     0.02302500    0.02149333   -0.01750929

     Total force =     0.050964     Total SCF correction =     0.000034


     entering subroutine stress ...

          total   stress  (Ry/bohr**3)                   (kbar)     P=  -17.50
  -0.00025162  -0.00123724  -0.00001130        -37.01   -182.00     -1.66
  -0.00123724  -0.00016945  -0.00000981       -182.00    -24.93     -1.44
  -0.00001130  -0.00000981   0.00006411         -1.66     -1.44      9.43


     BFGS Geometry Optimization

     number of scf cycles    =   1
     number of bfgs steps    =   0

     enthalpy new            =     -15.7835511670 Ry

     new trust radius        =       0.1024615492 bohr
     new conv_thr            =       0.0000010000 Ry

     new unit-cell volume =    260.81471 a.u.^3 (    38.64875 Ang^3 )

CELL_PARAMETERS (alat= 10.20000000)
  -0.016055416   0.495169043   0.497536071
   0.496844180  -0.012861785   0.497345645
   0.484808320   0.481988494  -0.001139266

ATOMIC_POSITIONS (alat)
Si      -0.002178461  -0.002028862   0.001720503
Si       0.239140716   0.239695106   0.251085608



     Writing output data file pwscf.save
     NEW-OLD atomic charge density approx. for the potential
     NEW k-points:
   0.2598672   0.2593202   0.7489367   1.5000000
   0.2597214   0.2591927   0.2497367   0.5000000
     extrapolated charge    7.92024, renormalised to    8.00000

     total cpu time spent up to now is        0.1 secs

     Self-consistent Calculation

     iteration #  1     ecut=    12.00 Ry     beta=0.70
     Davidson diagonalization with overlap
     ethr =  1.00E-06,  avg # of iterations =  6.5

     total cpu time spent up to now is        0.1 secs

     total energy              =     -15.80213637 Ry
     Harris-Foulkes estimate   =     -15.76245756 Ry
     estimated scf accuracy    <       0.00226769 Ry

     iteration #  2     ecut=    12.00 Ry     beta=0.70
     Davidson diagonalization with overlap
     ethr =  2.83E-05,  avg # of iterations =  2.0

     total cpu time spent up to now is        0.1 secs

     total energy              =     -15.80265000 Ry
     Harris-Foulkes estimate   =     -15.80271183 Ry
     estimated scf accuracy    <       0.00012969 Ry

     iteration #  3     ecut=    12.00 Ry     beta=0.70
     Davidson diagonalization with overlap
     ethr =  1.62E-06,  avg # of iterations =  2.0

     total cpu time spent up to now is        0.2 secs

     total energy              =     -15.80267139 Ry
     Harris-Foulkes estimate   =     -15.80267139 Ry
     estimated scf accuracy    <       0.00000408 Ry

     iteration #  4     ecut=    12.00 Ry     beta=0.70
     Davidson diagonalization with overlap
     ethr =  5.10E-08,  avg # of iterations =  2.0

     total cpu time spent up to now is        0.2 secs

     End of self-consistent calculation

          k = 0.2599 0.2593 0.7489 (   186 PWs)   bands (ev):

    -2.7460   0.2081   2.8377   3.9778

          k = 0.2597 0.2592 0.2497 (   181 PWs)   bands (ev):

    -4.7380   2.7416   5.5767   5.6566

     highest occupied level (ev):     5.6566

!    total energy              =     -15.80267181 Ry
     Harris-Foulkes estimate   =     -15.80267184 Ry
     estimated scf accuracy    <       0.00000010 Ry

     The total energy is the sum of the following terms:

     one-electron contribution =       4.93152642 Ry
     hartree contribution      =       1.09833061 Ry
     xc contribution           =      -4.84413806 Ry
     ewald contribution        =     -16.98839079 Ry

     convergence has been achieved in   4 iterations

     Forces acting on atoms (Ry/au):

     atom    1 type  1   force =    -0.00513139   -0.00493191   -0.00900539
     atom    2 type  1   force =     0.00513139    0.00493191    0.00900539

     Total force =     0.016233     Total SCF correction =     0.000094


     entering subroutine stress ...

          total   stress  (Ry/bohr**3)                   (kbar)     P=  -14.57
  -0.00012852  -0.00086649  -0.00002659        -18.91   -127.47     -3.91
  -0.00086649  -0.00005707  -0.00004116       -127.47     -8.40     -6.05
  -0.00002659  -0.00004116  -0.00011164         -3.91     -6.05    -16.42


     number of scf cycles    =   2
     number of bfgs steps    =   1

     enthalpy old            =     -15.7835511670 Ry
     enthalpy new            =     -15.8026718127 Ry

     CASE: enthalpy_new < enthalpy_old

     new trust radius        =       0.1141634197 bohr
     new conv_thr            =       0.0000000901 Ry

     new unit-cell volume =    256.54725 a.u.^3 (    38.01638 Ang^3 )

CELL_PARAMETERS (alat= 10.20000000)
  -0.033503787   0.492739778   0.495245226
   0.493161453  -0.030639187   0.495267958
   0.464574535   0.463013407  -0.002311930

ATOMIC_POSITIONS (alat)
Si      -0.003098189  -0.002897384   0.000940796
Si       0.229865721   0.230931199   0.250475306



     Writing output data file pwscf.save
     NEW-OLD atomic charge density approx. for the potential
     NEW k-points:
   0.2719888   0.2710534   0.7519749   1.5000000
   0.2713053   0.2701814   0.2511643   0.5000000
     extrapolated charge    7.86694, renormalised to    8.00000

     total cpu time spent up to now is        0.2 secs

     Self-consistent Calculation

     iteration #  1     ecut=    12.00 Ry     beta=0.70
     Davidson diagonalization with overlap
     ethr =  1.00E-06,  avg # of iterations =  6.5

     total cpu time spent up to now is        0.2 secs

     total energy              =     -15.81458724 Ry
     Harris-Foulkes estimate   =     -15.74789695 Ry
     estimated scf accuracy    <       0.00252844 Ry

     iteration #  2     ecut=    12.00 Ry     beta=0.70
     Davidson diagonalization with overlap
     ethr =  3.16E-05,  avg # of iterations =  2.5

     total cpu time spent up to now is        0.2 secs

     total energy              =     -15.81535473 Ry
     Harris-Foulkes estimate   =     -15.81549255 Ry
     estimated scf accuracy    <       0.00028162 Ry

     iteration #  3     ecut=    12.00 Ry     beta=0.70
     Davidson diagonalization with overlap
     ethr =  3.52E-06,  avg # of iterations =  2.0

     total cpu time spent up to now is        0.2 secs

     total energy              =     -15.81539050 Ry
     Harris-Foulkes estimate   =     -15.81539295 Ry
     estimated scf accuracy    <       0.00000991 Ry

     iteration #  4     ecut=    12.00 Ry     beta=0.70
     Davidson diagonalization with overlap
     ethr =  1.24E-07,  avg # of iterations =  2.5

     total cpu time spent up to now is        0.2 secs

     total energy              =     -15.81539244 Ry
     Harris-Foulkes estimate   =     -15.81539274 Ry
     estimated scf accuracy    <       0.00000060 Ry

     iteration #  5     ecut=    12.00 Ry     beta=0.70
     Davidson diagonalization with overlap
     ethr =  7.44E-09,  avg # of iterations =  2.0

     total cpu time spent up to now is        0.3 secs

     End of self-consistent calculation

          k = 0.2720 0.2711 0.7520 (   186 PWs)   bands (ev):

    -2.5914   0.5232   2.8635   3.8452

          k = 0.2713 0.2702 0.2512 (   181 PWs)   bands (ev):

    -4.6202   3.1516   5.5770   5.6239

     highest occupied level (ev):     5.6239

!    total energy              =     -15.81539254 Ry
     Harris-Foulkes estimate   =     -15.81539254 Ry
     estimated scf accuracy    <          6.1E-09 Ry

     The total energy is the sum of the following terms:

     one-electron contribution =       4.98482241 Ry
     hartree contribution      =       1.11209247 Ry
     xc contribution           =      -4.86161745 Ry
     ewald contribution        =     -17.05068997 Ry

     convergence has been achieved in   5 iterations

     Forces acting on atoms (Ry/au):

     atom    1 type  1   force =     0.00653341    0.00649325   -0.03007766
     atom    2 type  1   force =    -0.00653341   -0.00649325    0.03007766

     Total force =     0.044486     Total SCF correction =     0.000012


     entering subroutine stress ...

          total   stress  (Ry/bohr**3)                   (kbar)     P=    1.57
   0.00007043  -0.00048924  -0.00000183         10.36    -71.97     -0.27
  -0.00048924   0.00012436  -0.00002314        -71.97     18.29     -3.40
  -0.00000183  -0.00002314  -0.00016275         -0.27     -3.40    -23.94


     number of scf cycles    =   3
     number of bfgs steps    =   2

     enthalpy old            =     -15.8026718127 Ry
     enthalpy new            =     -15.8153925412 Ry

     CASE: enthalpy_new < enthalpy_old

     new trust radius        =       0.1733890447 bohr
     new conv_thr            =       0.0000003008 Ry

     new unit-cell volume =    251.28415 a.u.^3 (    37.23647 Ang^3 )

CELL_PARAMETERS (alat= 10.20000000)
  -0.060052116   0.492545120   0.490078007
   0.491016525  -0.057903361   0.490673033
   0.436476555   0.437143427  -0.003541489

ATOMIC_POSITIONS (alat)
Si      -0.003182299  -0.002873253  -0.004552472
Si       0.215953193   0.217803443   0.253192684



     Writing output data file pwscf.save
     NEW-OLD atomic charge density approx. for the potential
     NEW k-points:
   0.2900819   0.2886851   0.7592417   1.5000000
   0.2888850   0.2867863   0.2540825   0.5000000
     extrapolated charge    7.83246, renormalised to    8.00000

     total cpu time spent up to now is        0.3 secs

     Self-consistent Calculation

     iteration #  1     ecut=    12.00 Ry     beta=0.70
     Davidson diagonalization with overlap
     ethr =  1.00E-06,  avg # of iterations =  7.0

     total cpu time spent up to now is        0.3 secs

     total energy              =     -15.82456364 Ry
     Harris-Foulkes estimate   =     -15.74196417 Ry
     estimated scf accuracy    <       0.00436832 Ry

     iteration #  2     ecut=    12.00 Ry     beta=0.70
     Davidson diagonalization with overlap
     ethr =  5.46E-05,  avg # of iterations =  2.5

     total cpu time spent up to now is        0.3 secs

     total energy              =     -15.82594224 Ry
     Harris-Foulkes estimate   =     -15.82630419 Ry
     estimated scf accuracy    <       0.00074847 Ry

     iteration #  3     ecut=    12.00 Ry     beta=0.70
     Davidson diagonalization with overlap
     ethr =  9.36E-06,  avg # of iterations =  2.0

     total cpu time spent up to now is        0.3 secs

     total energy              =     -15.82604185 Ry
     Harris-Foulkes estimate   =     -15.82604814 Ry
     estimated scf accuracy    <       0.00002846 Ry

     iteration #  4     ecut=    12.00 Ry     beta=0.70
     Davidson diagonalization with overlap
     ethr =  3.56E-07,  avg # of iterations =  2.5

     total cpu time spent up to now is        0.3 secs

     total energy              =     -15.82604859 Ry
     Harris-Foulkes estimate   =     -15.82604984 Ry
     estimated scf accuracy    <       0.00000253 Ry

     iteration #  5     ecut=    12.00 Ry     beta=0.70
     Davidson diagonalization with overlap
     ethr =  3.17E-08,  avg # of iterations =  2.0

     total cpu time spent up to now is        0.3 secs

     End of self-consistent calculation

          k = 0.2901 0.2887 0.7592 (   186 PWs)   bands (ev):

    -2.3893   0.9962   3.0486   3.5774

          k = 0.2889 0.2868 0.2541 (   181 PWs)   bands (ev):

    -4.4439   3.8251   5.5003   5.5146

     highest occupied level (ev):     5.5146

!    total energy              =     -15.82604893 Ry
     Harris-Foulkes estimate   =     -15.82604894 Ry
     estimated scf accuracy    <       0.00000005 Ry

     The total energy is the sum of the following terms:

     one-electron contribution =       5.04627613 Ry
     hartree contribution      =       1.13625212 Ry
     xc contribution           =      -4.87683926 Ry
     ewald contribution        =     -17.13173791 Ry

     convergence has been achieved in   5 iterations

     Forces acting on atoms (Ry/au):

     atom    1 type  1   force =     0.01382979    0.01277051   -0.04614050
     atom    2 type  1   force =    -0.01382979   -0.01277051    0.04614050

     Total force =     0.070474     Total SCF correction =     0.000090


     entering subroutine stress ...

          total   stress  (Ry/bohr**3)                   (kbar)     P=   18.50
   0.00033049   0.00001606   0.00010003         48.62      2.36     14.71
   0.00001606   0.00034238   0.00006893          2.36     50.37     10.14
   0.00010003   0.00006893  -0.00029549         14.71     10.14    -43.47


     number of scf cycles    =   4
     number of bfgs steps    =   3

     enthalpy old            =     -15.8153925412 Ry
     enthalpy new            =     -15.8260489261 Ry

     CASE: enthalpy_new < enthalpy_old

     new trust radius        =       0.0912635782 bohr
     new conv_thr            =       0.0000004614 Ry

     new unit-cell volume =    250.54666 a.u.^3 (    37.12718 Ang^3 )

CELL_PARAMETERS (alat= 10.20000000)
  -0.072813357   0.497948689   0.485227179
   0.495673200  -0.071353506   0.486478082
   0.425641392   0.427558386  -0.001126475

ATOMIC_POSITIONS (alat)
Si      -0.002668470  -0.002365460  -0.011290548
Si       0.210787224   0.212990286   0.258202711



     Writing output data file pwscf.save
     NEW-OLD atomic charge density approx. for the potential
     NEW k-points:
   0.2947700   0.2935728   0.7669337   1.5000000
   0.2952448   0.2927746   0.2558355   0.5000000
     extrapolated charge    7.97645, renormalised to    8.00000

     total cpu time spent up to now is        0.4 secs

     Self-consistent Calculation

     iteration #  1     ecut=    12.00 Ry     beta=0.70
     Davidson diagonalization with overlap
     ethr =  1.00E-06,  avg # of iterations =  7.0

     total cpu time spent up to now is        0.4 secs

     total energy              =     -15.83302953 Ry
     Harris-Foulkes estimate   =     -15.82104435 Ry
     estimated scf accuracy    <       0.00057205 Ry

     iteration #  2     ecut=    12.00 Ry     beta=0.70
     Davidson diagonalization with overlap
     ethr =  7.15E-06,  avg # of iterations =  2.0

     total cpu time spent up to now is        0.4 secs

     total energy              =     -15.83306858 Ry
     Harris-Foulkes estimate   =     -15.83307026 Ry
     estimated scf accuracy    <       0.00003470 Ry

     iteration #  3     ecut=    12.00 Ry     beta=0.70
     Davidson diagonalization with overlap
     ethr =  4.34E-07,  avg # of iterations =  2.0

     total cpu time spent up to now is        0.4 secs

     total energy              =     -15.83307292 Ry
     Harris-Foulkes estimate   =     -15.83307284 Ry
     estimated scf accuracy    <       0.00000101 Ry

     iteration #  4     ecut=    12.00 Ry     beta=0.70
     Davidson diagonalization with overlap
     ethr =  1.26E-08,  avg # of iterations =  3.0

     total cpu time spent up to now is        0.4 secs

     End of self-consistent calculation

          k = 0.2948 0.2936 0.7669 (   186 PWs)   bands (ev):

    -2.2937   1.2058   3.1962   3.3511

          k = 0.2952 0.2928 0.2558 (   181 PWs)   bands (ev):

    -4.3622   4.1301   5.3548   5.4381

     highest occupied level (ev):     5.4381

!    total energy              =     -15.83307325 Ry
     Harris-Foulkes estimate   =     -15.83307324 Ry
     estimated scf accuracy    <       0.00000005 Ry

     The total energy is the sum of the following terms:

     one-electron contribution =       5.10745197 Ry
     hartree contribution      =       1.11225173 Ry
     xc contribution           =      -4.86326733 Ry
     ewald contribution        =     -17.18950962 Ry

     convergence has been achieved in   4 iterations

     Forces acting on atoms (Ry/au):

     atom    1 type  1   force =     0.01698723    0.01543062   -0.03423668
     atom    2 type  1   force =    -0.01698723   -0.01543062    0.03423668

     Total force =     0.058289     Total SCF correction =     0.000025


     entering subroutine stress ...

          total   stress  (Ry/bohr**3)                   (kbar)     P=    2.49
   0.00032749   0.00014227   0.00013399         48.18     20.93     19.71
   0.00014227   0.00031347   0.00010697         20.93     46.11     15.74
   0.00013399   0.00010697  -0.00059026         19.71     15.74    -86.83


     number of scf cycles    =   5
     number of bfgs steps    =   4

     enthalpy old            =     -15.8260489261 Ry
     enthalpy new            =     -15.8330732507 Ry

     CASE: enthalpy_new < enthalpy_old

     new trust radius        =       0.1348202362 bohr
     new conv_thr            =       0.0000003424 Ry

     new unit-cell volume =    247.43517 a.u.^3 (    36.66611 Ang^3 )

CELL_PARAMETERS (alat= 10.20000000)
  -0.089812927   0.510374855   0.471212332
   0.507468285  -0.089619354   0.473708978
   0.413124611   0.416636403   0.006046740

ATOMIC_POSITIONS (alat)
Si      -0.001283206  -0.001075385  -0.022247583
Si       0.205077100   0.207650121   0.264049125



     Writing output data file pwscf.save
     NEW-OLD atomic charge density approx. for the potential
     NEW k-points:
   0.2958675   0.2954859   0.7907735   1.5000000
   0.3014435   0.2986912   0.2611483   0.5000000
     extrapolated charge    7.89941, renormalised to    8.00000

     total cpu time spent up to now is        0.5 secs

     Self-consistent Calculation

     iteration #  1     ecut=    12.00 Ry     beta=0.70
     Davidson diagonalization with overlap
     ethr =  1.00E-06,  avg # of iterations =  7.5

     total cpu time spent up to now is        0.5 secs

     total energy              =     -15.84746090 Ry
     Harris-Foulkes estimate   =     -15.79391785 Ry
     estimated scf accuracy    <       0.00173822 Ry

     iteration #  2     ecut=    12.00 Ry     beta=0.70
     Davidson diagonalization with overlap
     ethr =  2.17E-05,  avg # of iterations =  1.0

     total cpu time spent up to now is        0.5 secs

     total energy              =     -15.84748260 Ry
     Harris-Foulkes estimate   =     -15.84750863 Ry
     estimated scf accuracy    <       0.00014224 Ry

     iteration #  3     ecut=    12.00 Ry     beta=0.70
     Davidson diagonalization with overlap
     ethr =  1.78E-06,  avg # of iterations =  2.5

     total cpu time spent up to now is        0.5 secs

     total energy              =     -15.84750290 Ry
     Harris-Foulkes estimate   =     -15.84751638 Ry
     estimated scf accuracy    <       0.00002834 Ry

     iteration #  4     ecut=    12.00 Ry     beta=0.70
     Davidson diagonalization with overlap
     ethr =  3.54E-07,  avg # of iterations =  2.0

     total cpu time spent up to now is        0.5 secs

     total energy              =     -15.84750605 Ry
     Harris-Foulkes estimate   =     -15.84750657 Ry
     estimated scf accuracy    <       0.00000140 Ry

     iteration #  5     ecut=    12.00 Ry     beta=0.70
     Davidson diagonalization with overlap
     ethr =  1.75E-08,  avg # of iterations =  3.0

     total cpu time spent up to now is        0.5 secs

     total energy              =     -15.84750658 Ry
     Harris-Foulkes estimate   =     -15.84750677 Ry
     estimated scf accuracy    <       0.00000042 Ry

     iteration #  6     ecut=    12.00 Ry     beta=0.70
     Davidson diagonalization with overlap
     ethr =  5.19E-09,  avg # of iterations =  2.0

     total cpu time spent up to now is        0.5 secs

     End of self-consistent calculation

          k = 0.2959 0.2955 0.7908 (   186 PWs)   bands (ev):

    -2.0844   1.5677   3.1163   3.4296

          k = 0.3014 0.2987 0.2611 (   181 PWs)   bands (ev):

    -4.2122   4.5435   5.2877   5.3965

     highest occupied level (ev):     5.3965

!    total energy              =     -15.84750663 Ry
     Harris-Foulkes estimate   =     -15.84750664 Ry
     estimated scf accuracy    <          8.3E-09 Ry

     The total energy is the sum of the following terms:

     one-electron contribution =       5.37309850 Ry
     hartree contribution      =       1.00114222 Ry
     xc contribution           =      -4.83594086 Ry
     ewald contribution        =     -17.38580649 Ry

     convergence has been achieved in   6 iterations

     Forces acting on atoms (Ry/au):

     atom    1 type  1   force =     0.02512027    0.02271220   -0.02576354
     atom    2 type  1   force =    -0.02512027   -0.02271220    0.02576354

     Total force =     0.060177     Total SCF correction =     0.000059


     entering subroutine stress ...

          total   stress  (Ry/bohr**3)                   (kbar)     P=  -27.64
   0.00037210   0.00032466   0.00014879         54.74     47.76     21.89
   0.00032466   0.00031265   0.00014030         47.76     45.99     20.64
   0.00014879   0.00014030  -0.00124835         21.89     20.64   -183.64


     number of scf cycles    =   6
     number of bfgs steps    =   5

     enthalpy old            =     -15.8330732507 Ry
     enthalpy new            =     -15.8475066342 Ry

     CASE: enthalpy_new < enthalpy_old


     WARNING: bfgs curvature condition failed, Theta= 0.726
     new trust radius        =       0.1947853203 bohr
     new conv_thr            =       0.0000002576 Ry

     new unit-cell volume =    241.98781 a.u.^3 (    35.85889 Ang^3 )

CELL_PARAMETERS (alat= 10.20000000)
  -0.115647197   0.528032849   0.453891894
   0.524076684  -0.117379742   0.458261979
   0.393285732   0.399370738   0.016166945

ATOMIC_POSITIONS (alat)
Si       0.000074551   0.000280946  -0.037087126
Si       0.196619118   0.199666793   0.272955366



     Writing output data file pwscf.save
     NEW-OLD atomic charge density approx. for the potential
     NEW k-points:
   0.2983817   0.2991521   0.8226694   1.5000000
   0.3122806   0.3090369   0.2673765   0.5000000
     extrapolated charge    7.81994, renormalised to    8.00000

     total cpu time spent up to now is        0.6 secs

     Self-consistent Calculation

     iteration #  1     ecut=    12.00 Ry     beta=0.70
     Davidson diagonalization with overlap
     ethr =  1.00E-06,  avg # of iterations =  7.5

     total cpu time spent up to now is        0.6 secs

     total energy              =     -15.86491125 Ry
     Harris-Foulkes estimate   =     -15.76164847 Ry
     estimated scf accuracy    <       0.00417212 Ry

     iteration #  2     ecut=    12.00 Ry     beta=0.70
     Davidson diagonalization with overlap
     ethr =  5.22E-05,  avg # of iterations =  1.0

     total cpu time spent up to now is        0.6 secs

     total energy              =     -15.86496406 Ry
     Harris-Foulkes estimate   =     -15.86499880 Ry
     estimated scf accuracy    <       0.00023407 Ry

     iteration #  3     ecut=    12.00 Ry     beta=0.70
     Davidson diagonalization with overlap
     ethr =  2.93E-06,  avg # of iterations =  3.0

     total cpu time spent up to now is        0.6 secs

     total energy              =     -15.86501328 Ry
     Harris-Foulkes estimate   =     -15.86504995 Ry
     estimated scf accuracy    <       0.00009274 Ry

     iteration #  4     ecut=    12.00 Ry     beta=0.70
     Davidson diagonalization with overlap
     ethr =  1.16E-06,  avg # of iterations =  2.0

     total cpu time spent up to now is        0.6 secs

     total energy              =     -15.86501601 Ry
     Harris-Foulkes estimate   =     -15.86502122 Ry
     estimated scf accuracy    <       0.00001112 Ry

     iteration #  5     ecut=    12.00 Ry     beta=0.70
     Davidson diagonalization with overlap
     ethr =  1.39E-07,  avg # of iterations =  3.0

     total cpu time spent up to now is        0.6 secs

     total energy              =     -15.86501971 Ry
     Harris-Foulkes estimate   =     -15.86502043 Ry
     estimated scf accuracy    <       0.00000156 Ry

     iteration #  6     ecut=    12.00 Ry     beta=0.70
     Davidson diagonalization with overlap
     ethr =  1.94E-08,  avg # of iterations =  2.0

     total cpu time spent up to now is        0.6 secs

     End of self-consistent calculation

          k = 0.2984 0.2992 0.8227 (   186 PWs)   bands (ev):

    -1.8053   1.8148   3.0611   3.8725

          k = 0.3123 0.3090 0.2674 (   181 PWs)   bands (ev):

    -3.9673   4.6976   5.5097   5.7062

     highest occupied level (ev):     5.7062

!    total energy              =     -15.86501995 Ry
     Harris-Foulkes estimate   =     -15.86501996 Ry
     estimated scf accuracy    <       0.00000002 Ry

     The total energy is the sum of the following terms:

     one-electron contribution =       5.87950768 Ry
     hartree contribution      =       0.78696065 Ry
     xc contribution           =      -4.79267525 Ry
     ewald contribution        =     -17.73881304 Ry

     convergence has been achieved in   6 iterations

     Forces acting on atoms (Ry/au):

     atom    1 type  1   force =     0.03994118    0.03525152   -0.03570458
     atom    2 type  1   force =    -0.03994118   -0.03525152    0.03570458

     Total force =     0.090695     Total SCF correction =     0.000098


     entering subroutine stress ...

          total   stress  (Ry/bohr**3)                   (kbar)     P=  -94.05
   0.00033859   0.00112058   0.00016176         49.81    164.84     23.80
   0.00112058   0.00018300   0.00018715        164.84     26.92     27.53
   0.00016176   0.00018715  -0.00243965         23.80     27.53   -358.89


     number of scf cycles    =   7
     number of bfgs steps    =   6

     enthalpy old            =     -15.8475066342 Ry
     enthalpy new            =     -15.8650199541 Ry

     CASE: enthalpy_new < enthalpy_old


     WARNING: info= 15 for Hessian

     WARNING: bfgs curvature condition failed, Theta= 0.811
     new trust radius        =       0.2793212576 bohr
     new conv_thr            =       0.0000003994 Ry

     new unit-cell volume =    229.77643 a.u.^3 (    34.04935 Ang^3 )

CELL_PARAMETERS (alat= 10.20000000)
  -0.154378056   0.554568369   0.427924175
   0.549040269  -0.159003469   0.435107787
   0.363562032   0.373508823   0.031379749

ATOMIC_POSITIONS (alat)
Si       0.001099536   0.001528450  -0.056355895
Si       0.184970184   0.188504147   0.283339336



     Writing output data file pwscf.save
     NEW-OLD atomic charge density approx. for the potential
     NEW k-points:
   0.3007210   0.3033033   0.8765114   1.5000000
   0.3301706   0.3261787   0.2769416   0.5000000
     extrapolated charge    7.57490, renormalised to    8.00000

     total cpu time spent up to now is        0.7 secs

     Self-consistent Calculation

     iteration #  1     ecut=    12.00 Ry     beta=0.70
     Davidson diagonalization with overlap
     ethr =  1.00E-06,  avg # of iterations =  7.0

     total cpu time spent up to now is        0.7 secs

     total energy              =     -15.86608528 Ry
     Harris-Foulkes estimate   =     -15.59424011 Ry
     estimated scf accuracy    <       0.00616038 Ry

     iteration #  2     ecut=    12.00 Ry     beta=0.70
     Davidson diagonalization with overlap
     ethr =  7.70E-05,  avg # of iterations =  2.5

     total cpu time spent up to now is        0.7 secs

     total energy              =     -15.86633550 Ry
     Harris-Foulkes estimate   =     -15.86756410 Ry
     estimated scf accuracy    <       0.00224427 Ry

     iteration #  3     ecut=    12.00 Ry     beta=0.70
     Davidson diagonalization with overlap
     ethr =  2.81E-05,  avg # of iterations =  2.5

     total cpu time spent up to now is        0.7 secs

     total energy              =     -15.86693468 Ry
     Harris-Foulkes estimate   =     -15.86701314 Ry
     estimated scf accuracy    <       0.00024229 Ry

     iteration #  4     ecut=    12.00 Ry     beta=0.70
     Davidson diagonalization with overlap
     ethr =  3.03E-06,  avg # of iterations =  2.0

     total cpu time spent up to now is        0.7 secs

     total energy              =     -15.86694884 Ry
     Harris-Foulkes estimate   =     -15.86695921 Ry
     estimated scf accuracy    <       0.00002102 Ry

     iteration #  5     ecut=    12.00 Ry     beta=0.70
     Davidson diagonalization with overlap
     ethr =  2.63E-07,  avg # of iterations =  2.5

     total cpu time spent up to now is        0.7 secs

     total energy              =     -15.86695678 Ry
     Harris-Foulkes estimate   =     -15.86695798 Ry
     estimated scf accuracy    <       0.00000269 Ry

     iteration #  6     ecut=    12.00 Ry     beta=0.70
     Davidson diagonalization with overlap
     ethr =  3.36E-08,  avg # of iterations =  2.0

     total cpu time spent up to now is        0.7 secs

     End of self-consistent calculation

          k = 0.3007 0.3033 0.8765 (   186 PWs)   bands (ev):

    -1.2837   1.4566   3.5067   5.1636

          k = 0.3302 0.3262 0.2769 (   181 PWs)   bands (ev):

    -3.5016   4.2267   6.8981   6.9660

     highest occupied level (ev):     6.9660

!    total energy              =     -15.86695714 Ry
     Harris-Foulkes estimate   =     -15.86695718 Ry
     estimated scf accuracy    <       0.00000008 Ry

     The total energy is the sum of the following terms:

     one-electron contribution =       6.71344203 Ry
     hartree contribution      =       0.51453528 Ry
     xc contribution           =      -4.77955312 Ry
     ewald contribution        =     -18.31538133 Ry

     convergence has been achieved in   6 iterations

     Forces acting on atoms (Ry/au):

     atom    1 type  1   force =     0.05159388    0.04489800   -0.05046845
     atom    2 type  1   force =    -0.05159388   -0.04489800    0.05046845

     Total force =     0.120207     Total SCF correction =     0.000259


     entering subroutine stress ...

          total   stress  (Ry/bohr**3)                   (kbar)     P= -194.04
  -0.00003567   0.00305438   0.00021876         -5.25    449.32     32.18
   0.00305438  -0.00035864   0.00033158        449.32    -52.76     48.78
   0.00021876   0.00033158  -0.00356279         32.18     48.78   -524.10


     number of scf cycles    =   8
     number of bfgs steps    =   7

     enthalpy old            =     -15.8650199541 Ry
     enthalpy new            =     -15.8669571377 Ry

     CASE: enthalpy_new < enthalpy_old


     WARNING: info= 15 for Hessian

     WARNING: bfgs curvature condition failed, Theta= 0.849
     new trust radius        =       0.3996970471 bohr
     new conv_thr            =       0.0000001937 Ry

     new unit-cell volume =    246.27328 a.u.^3 (    36.49393 Ang^3 )

CELL_PARAMETERS (alat= 10.20000000)
  -0.096282412   0.514763232   0.466875432
   0.511592934  -0.096568360   0.469838620
   0.408146464   0.412300495   0.008559377

ATOMIC_POSITIONS (alat)
Si      -0.000894897  -0.000698502  -0.026088524
Si       0.202899613   0.205602931   0.266398688



     Writing output data file pwscf.save
     NEW-OLD atomic charge density approx. for the potential
     NEW k-points:
   0.2965792   0.2964818   0.7984903   1.5000000
   0.3040972   0.3012213   0.2627014   0.5000000
     extrapolated charge    8.53582, renormalised to    8.00000

     total cpu time spent up to now is        0.8 secs

     Self-consistent Calculation

     iteration #  1     ecut=    12.00 Ry     beta=0.70
     Davidson diagonalization with overlap
     ethr =  1.00E-06,  avg # of iterations =  8.0

     total cpu time spent up to now is        0.8 secs

     total energy              =     -15.85219420 Ry
     Harris-Foulkes estimate   =     -16.16256435 Ry
     estimated scf accuracy    <       0.01907702 Ry

     iteration #  2     ecut=    12.00 Ry     beta=0.70
     Davidson diagonalization with overlap
     ethr =  2.38E-04,  avg # of iterations =  1.0

     total cpu time spent up to now is        0.8 secs

     total energy              =     -15.85176580 Ry
     Harris-Foulkes estimate   =     -15.85283733 Ry
     estimated scf accuracy    <       0.00218753 Ry

     iteration #  3     ecut=    12.00 Ry     beta=0.70
     Davidson diagonalization with overlap
     ethr =  2.73E-05,  avg # of iterations =  2.0

     total cpu time spent up to now is        0.8 secs

     total energy              =     -15.85215005 Ry
     Harris-Foulkes estimate   =     -15.85236971 Ry
     estimated scf accuracy    <       0.00041658 Ry

     iteration #  4     ecut=    12.00 Ry     beta=0.70
     Davidson diagonalization with overlap
     ethr =  5.21E-06,  avg # of iterations =  2.0

     total cpu time spent up to now is        0.8 secs

     total energy              =     -15.85220453 Ry
     Harris-Foulkes estimate   =     -15.85220985 Ry
     estimated scf accuracy    <       0.00001054 Ry

     iteration #  5     ecut=    12.00 Ry     beta=0.70
     Davidson diagonalization with overlap
     ethr =  1.32E-07,  avg # of iterations =  3.0

     total cpu time spent up to now is        0.8 secs

     total energy              =     -15.85220834 Ry
     Harris-Foulkes estimate   =     -15.85221039 Ry
     estimated scf accuracy    <       0.00000360 Ry

     iteration #  6     ecut=    12.00 Ry     beta=0.70
     Davidson diagonalization with overlap
     ethr =  4.50E-08,  avg # of iterations =  3.0

     total cpu time spent up to now is        0.8 secs

     total energy              =     -15.85220919 Ry
     Harris-Foulkes estimate   =     -15.85220956 Ry
     estimated scf accuracy    <       0.00000084 Ry

     iteration #  7     ecut=    12.00 Ry     beta=0.70
     Davidson diagonalization with overlap
     ethr =  1.05E-08,  avg # of iterations =  2.0

     total cpu time spent up to now is        0.8 secs

     End of self-consistent calculation

          k = 0.2966 0.2965 0.7985 (   186 PWs)   bands (ev):

    -2.0174   1.6662   3.0716   3.5146

          k = 0.3041 0.3012 0.2627 (   181 PWs)   bands (ev):

    -4.1561   4.6682   5.2621   5.4211

     highest occupied level (ev):     5.4211

!    total energy              =     -15.85220928 Ry
     Harris-Foulkes estimate   =     -15.85220929 Ry
     estimated scf accuracy    <       0.00000002 Ry

     The total energy is the sum of the following terms:

     one-electron contribution =       5.48639129 Ry
     hartree contribution      =       0.95139583 Ry
     xc contribution           =      -4.82422735 Ry
     ewald contribution        =     -17.46576906 Ry

     convergence has been achieved in   7 iterations

     Forces acting on atoms (Ry/au):

     atom    1 type  1   force =     0.02892966    0.02596966   -0.02651725
     atom    2 type  1   force =    -0.02892966   -0.02596966    0.02651725

     Total force =     0.066551     Total SCF correction =     0.000095


     entering subroutine stress ...

          total   stress  (Ry/bohr**3)                   (kbar)     P=  -42.52
   0.00037969   0.00046941   0.00014954         55.85     69.05     22.00
   0.00046941   0.00029839   0.00014837         69.05     43.89     21.83
   0.00014954   0.00014837  -0.00154530         22.00     21.83   -227.32


     number of scf cycles    =   9
     number of bfgs steps    =   8

     enthalpy old            =     -15.8669571377 Ry
     enthalpy new            =     -15.8522092792 Ry

     CASE: enthalpy_new > enthalpy_old

     new trust radius        =       0.1544842574 bohr
     new conv_thr            =       0.0000001937 Ry

     new unit-cell volume =    236.88586 a.u.^3 (    35.10286 Ang^3 )

CELL_PARAMETERS (alat= 10.20000000)
  -0.133657209   0.540371157   0.441816835
   0.535684009  -0.136734874   0.447495157
   0.379463864   0.387344564   0.023240456

ATOMIC_POSITIONS (alat)
Si       0.000702667   0.000978951  -0.046498577
Si       0.191050553   0.194357950   0.278235232



     Writing output data file pwscf.save
     NEW-OLD atomic charge density approx. for the potential
     NEW k-points:
   0.2997173   0.3013126   0.8467238   1.5000000
   0.3203299   0.3167418   0.2717949   0.5000000
     extrapolated charge    7.68301, renormalised to    8.00000

     total cpu time spent up to now is        0.9 secs

     Self-consistent Calculation

     iteration #  1     ecut=    12.00 Ry     beta=0.70
     Davidson diagonalization with overlap
     ethr =  1.00E-06,  avg # of iterations =  7.0

     total cpu time spent up to now is        0.9 secs

     total energy              =     -15.87151877 Ry
     Harris-Foulkes estimate   =     -15.67918085 Ry
     estimated scf accuracy    <       0.00663777 Ry

     iteration #  2     ecut=    12.00 Ry     beta=0.70
     Davidson diagonalization with overlap
     ethr =  8.30E-05,  avg # of iterations =  1.0

     total cpu time spent up to now is        0.9 secs

     total energy              =     -15.87148946 Ry
     Harris-Foulkes estimate   =     -15.87168644 Ry
     estimated scf accuracy    <       0.00063478 Ry

     iteration #  3     ecut=    12.00 Ry     beta=0.70
     Davidson diagonalization with overlap
     ethr =  7.93E-06,  avg # of iterations =  2.5

     total cpu time spent up to now is        0.9 secs

     total energy              =     -15.87158846 Ry
     Harris-Foulkes estimate   =     -15.87171376 Ry
     estimated scf accuracy    <       0.00027640 Ry

     iteration #  4     ecut=    12.00 Ry     beta=0.70
     Davidson diagonalization with overlap
     ethr =  3.45E-06,  avg # of iterations =  2.0

     total cpu time spent up to now is        0.9 secs

     total energy              =     -15.87161212 Ry
     Harris-Foulkes estimate   =     -15.87162019 Ry
     estimated scf accuracy    <       0.00001551 Ry

     iteration #  5     ecut=    12.00 Ry     beta=0.70
     Davidson diagonalization with overlap
     ethr =  1.94E-07,  avg # of iterations =  3.0

     total cpu time spent up to now is        0.9 secs

     total energy              =     -15.87161675 Ry
     Harris-Foulkes estimate   =     -15.87161754 Ry
     estimated scf accuracy    <       0.00000143 Ry

     iteration #  6     ecut=    12.00 Ry     beta=0.70
     Davidson diagonalization with overlap
     ethr =  1.78E-08,  avg # of iterations =  2.0

     total cpu time spent up to now is        0.9 secs

     End of self-consistent calculation

          k = 0.2997 0.3013 0.8467 (   186 PWs)   bands (ev):

    -1.5772   1.7355   3.2023   4.3982

          k = 0.3203 0.3167 0.2718 (   181 PWs)   bands (ev):

    -3.7588   4.4785   6.0831   6.1915

     highest occupied level (ev):     6.1915

!    total energy              =     -15.87161710 Ry
     Harris-Foulkes estimate   =     -15.87161717 Ry
     estimated scf accuracy    <       0.00000010 Ry

     The total energy is the sum of the following terms:

     one-electron contribution =       6.27580841 Ry
     hartree contribution      =       0.64227758 Ry
     xc contribution           =      -4.77600828 Ry
     ewald contribution        =     -18.01369482 Ry

     convergence has been achieved in   6 iterations

     Forces acting on atoms (Ry/au):

     atom    1 type  1   force =     0.04729051    0.04131348   -0.04518791
     atom    2 type  1   force =    -0.04729051   -0.04131348    0.04518791

     Total force =     0.109409     Total SCF correction =     0.000273


     entering subroutine stress ...

          total   stress  (Ry/bohr**3)                   (kbar)     P= -144.47
   0.00020349   0.00196027   0.00019228         29.93    288.37     28.28
   0.00196027  -0.00002641   0.00025147        288.37     -3.89     36.99
   0.00019228   0.00025147  -0.00312343         28.28     36.99   -459.47


     number of scf cycles    =  10
     number of bfgs steps    =   8

     enthalpy old            =     -15.8669571377 Ry
     enthalpy new            =     -15.8716171021 Ry

     CASE: enthalpy_new < enthalpy_old


     WARNING: info= 15 for Hessian

     WARNING: bfgs curvature condition failed, Theta= 0.860
     new trust radius        =       0.4372930267 bohr
     new conv_thr            =       0.0000004660 Ry

     new unit-cell volume =    211.97220 a.u.^3 (    31.41104 Ang^3 )

CELL_PARAMETERS (alat= 10.20000000)
  -0.195819441   0.582963763   0.400138971
   0.575753787  -0.203540438   0.410333260
   0.331759001   0.345838060   0.047659006

ATOMIC_POSITIONS (alat)
Si       0.000847122   0.001813159  -0.072950842
Si       0.173856080   0.177611304   0.290428101



     Writing output data file pwscf.save
     NEW-OLD atomic charge density approx. for the potential
     NEW k-points:
   0.3002888   0.3050462   0.9442458   1.5000000
   0.3520416   0.3471936   0.2873067   0.5000000
     extrapolated charge    7.05986, renormalised to    8.00000

     total cpu time spent up to now is        1.0 secs

     Self-consistent Calculation

     iteration #  1     ecut=    12.00 Ry     beta=0.70
     Davidson diagonalization with overlap
     ethr =  1.00E-06,  avg # of iterations =  9.0

     total cpu time spent up to now is        1.0 secs

     total energy              =     -15.78086809 Ry
     Harris-Foulkes estimate   =     -15.16610748 Ry
     estimated scf accuracy    <       0.02386913 Ry

     iteration #  2     ecut=    12.00 Ry     beta=0.70
     Davidson diagonalization with overlap
     ethr =  2.98E-04,  avg # of iterations =  3.0

     total cpu time spent up to now is        1.0 secs

     total energy              =     -15.78694424 Ry
     Harris-Foulkes estimate   =     -15.79065383 Ry
     estimated scf accuracy    <       0.00700654 Ry

     iteration #  3     ecut=    12.00 Ry     beta=0.70
     Davidson diagonalization with overlap
     ethr =  8.76E-05,  avg # of iterations =  3.0

     total cpu time spent up to now is        1.0 secs

     total energy              =     -15.78857902 Ry
     Harris-Foulkes estimate   =     -15.78895525 Ry
     estimated scf accuracy    <       0.00084606 Ry

     iteration #  4     ecut=    12.00 Ry     beta=0.70
     Davidson diagonalization with overlap
     ethr =  1.06E-05,  avg # of iterations =  3.0

     total cpu time spent up to now is        1.0 secs

     total energy              =     -15.78876397 Ry
     Harris-Foulkes estimate   =     -15.78876683 Ry
     estimated scf accuracy    <       0.00004054 Ry

     iteration #  5     ecut=    12.00 Ry     beta=0.70
     Davidson diagonalization with overlap
     ethr =  5.07E-07,  avg # of iterations =  2.5

     total cpu time spent up to now is        1.0 secs

     total energy              =     -15.78877009 Ry
     Harris-Foulkes estimate   =     -15.78877052 Ry
     estimated scf accuracy    <       0.00000105 Ry

     iteration #  6     ecut=    12.00 Ry     beta=0.70
     Davidson diagonalization with overlap
     ethr =  1.32E-08,  avg # of iterations =  2.5

     total cpu time spent up to now is        1.0 secs

     End of self-consistent calculation

          k = 0.3003 0.3050 0.9442 (   186 PWs)   bands (ev):

    -0.8752   0.8154   4.4175   6.7597

          k = 0.3520 0.3472 0.2873 (   181 PWs)   bands (ev):

    -3.1324   3.8984   8.6900   9.1211

     highest occupied level (ev):     9.1211

!    total energy              =     -15.78877028 Ry
     Harris-Foulkes estimate   =     -15.78877039 Ry
     estimated scf accuracy    <       0.00000016 Ry

     The total energy is the sum of the following terms:

     one-electron contribution =       7.29826251 Ry
     hartree contribution      =       0.49219539 Ry
     xc contribution           =      -4.88808259 Ry
     ewald contribution        =     -18.69114559 Ry

     convergence has been achieved in   6 iterations

     Forces acting on atoms (Ry/au):

     atom    1 type  1   force =     0.04983932    0.04503840   -0.02548857
     atom    2 type  1   force =    -0.04983932   -0.04503840    0.02548857

     Total force =     0.101608     Total SCF correction =     0.000420


     entering subroutine stress ...

          total   stress  (Ry/bohr**3)                   (kbar)     P= -159.84
  -0.00035022   0.00527569  -0.00024387        -51.52    776.08    -35.87
   0.00527569  -0.00087006  -0.00003624        776.08   -127.99     -5.33
  -0.00024387  -0.00003624  -0.00203937        -35.87     -5.33   -300.00


     number of scf cycles    =  11
     number of bfgs steps    =   9

     enthalpy old            =     -15.8716171021 Ry
     enthalpy new            =     -15.7887702777 Ry

     CASE: enthalpy_new > enthalpy_old

     new trust radius        =       0.0208402614 bohr
     new conv_thr            =       0.0000004660 Ry

     new unit-cell volume =    235.97721 a.u.^3 (    34.96822 Ang^3 )

CELL_PARAMETERS (alat= 10.20000000)
  -0.136530586   0.542339951   0.439890324
   0.537536188  -0.139822884   0.445777392
   0.377258762   0.385425974   0.024369175

ATOMIC_POSITIONS (alat)
Si       0.000778527   0.001071361  -0.047927668
Si       0.190186576   0.193530006   0.279005198



     Writing output data file pwscf.save
     NEW-OLD atomic charge density approx. for the potential
     NEW k-points:
   0.2998935   0.3016229   0.8507134   1.5000000
   0.3216559   0.3180124   0.2725050   0.5000000
     extrapolated charge    8.81371, renormalised to    8.00000

     total cpu time spent up to now is        1.1 secs

     Self-consistent Calculation

     iteration #  1     ecut=    12.00 Ry     beta=0.70
     Davidson diagonalization with overlap
     ethr =  1.00E-06,  avg # of iterations =  9.0

     total cpu time spent up to now is        1.1 secs

     total energy              =     -15.86873729 Ry
     Harris-Foulkes estimate   =     -16.40981190 Ry
     estimated scf accuracy    <       0.03924567 Ry

     iteration #  2     ecut=    12.00 Ry     beta=0.70
     Davidson diagonalization with overlap
     ethr =  4.91E-04,  avg # of iterations =  2.0

     total cpu time spent up to now is        1.1 secs

     total energy              =     -15.87042046 Ry
     Harris-Foulkes estimate   =     -15.87272588 Ry
     estimated scf accuracy    <       0.00363061 Ry

     iteration #  3     ecut=    12.00 Ry     beta=0.70
     Davidson diagonalization with overlap
     ethr =  4.54E-05,  avg # of iterations =  2.5

     total cpu time spent up to now is        1.1 secs

     total energy              =     -15.87161298 Ry
     Harris-Foulkes estimate   =     -15.87239642 Ry
     estimated scf accuracy    <       0.00152300 Ry

     iteration #  4     ecut=    12.00 Ry     beta=0.70
     Davidson diagonalization with overlap
     ethr =  1.90E-05,  avg # of iterations =  2.0

     total cpu time spent up to now is        1.1 secs

     total energy              =     -15.87187093 Ry
     Harris-Foulkes estimate   =     -15.87187627 Ry
     estimated scf accuracy    <       0.00001700 Ry

     iteration #  5     ecut=    12.00 Ry     beta=0.70
     Davidson diagonalization with overlap
     ethr =  2.13E-07,  avg # of iterations =  3.0

     total cpu time spent up to now is        1.1 secs

     total energy              =     -15.87187810 Ry
     Harris-Foulkes estimate   =     -15.87188020 Ry
     estimated scf accuracy    <       0.00000397 Ry

     iteration #  6     ecut=    12.00 Ry     beta=0.70
     Davidson diagonalization with overlap
     ethr =  4.96E-08,  avg # of iterations =  2.0

     total cpu time spent up to now is        1.1 secs

     End of self-consistent calculation

          k = 0.2999 0.3016 0.8507 (   186 PWs)   bands (ev):

    -1.5367   1.7062   3.2365   4.4976

          k = 0.3217 0.3180 0.2725 (   181 PWs)   bands (ev):

    -3.7228   4.4420   6.1889   6.2864

     highest occupied level (ev):     6.2864

!    total energy              =     -15.87187889 Ry
     Harris-Foulkes estimate   =     -15.87187892 Ry
     estimated scf accuracy    <       0.00000005 Ry

     The total energy is the sum of the following terms:

     one-electron contribution =       6.33907667 Ry
     hartree contribution      =       0.62125573 Ry
     xc contribution           =      -4.77482576 Ry
     ewald contribution        =     -18.05738553 Ry

     convergence has been achieved in   6 iterations

     Forces acting on atoms (Ry/au):

     atom    1 type  1   force =     0.04816165    0.04200650   -0.04639555
     atom    2 type  1   force =    -0.04816165   -0.04200650    0.04639555

     Total force =     0.111684     Total SCF correction =     0.000158


     entering subroutine stress ...

          total   stress  (Ry/bohr**3)                   (kbar)     P= -152.29
   0.00017416   0.00210900   0.00019881         25.62    310.24     29.25
   0.00210900  -0.00006758   0.00026312        310.24     -9.94     38.71
   0.00019881   0.00026312  -0.00321225         29.25     38.71   -472.54


     number of scf cycles    =  12
     number of bfgs steps    =   9

     enthalpy old            =     -15.8716171021 Ry
     enthalpy new            =     -15.8718788936 Ry

     CASE: enthalpy_new < enthalpy_old


     WARNING: info= 15 for Hessian

     WARNING: bfgs curvature condition failed, Theta= 0.850
     new trust radius        =       0.0604369480 bohr
     new conv_thr            =       0.0000000262 Ry

     new unit-cell volume =    233.10049 a.u.^3 (    34.54193 Ang^3 )

CELL_PARAMETERS (alat= 10.20000000)
  -0.145150667   0.548246544   0.434110807
   0.543092940  -0.149086882   0.440624136
   0.370643595   0.379670366   0.027755486

ATOMIC_POSITIONS (alat)
Si       0.000965869   0.001317271  -0.052095134
Si       0.187634983   0.191077595   0.281195344



     Writing output data file pwscf.save
     NEW-OLD atomic charge density approx. for the potential
     NEW k-points:
   0.3003531   0.3024898   0.8629492   1.5000000
   0.3257069   0.3218962   0.2746427   0.5000000
     extrapolated charge    7.90128, renormalised to    8.00000

     total cpu time spent up to now is        1.2 secs

     Self-consistent Calculation

     iteration #  1     ecut=    12.00 Ry     beta=0.70
     Davidson diagonalization with overlap
     ethr =  1.00E-06,  avg # of iterations =  5.5

     total cpu time spent up to now is        1.2 secs

     total energy              =     -15.87095492 Ry
     Harris-Foulkes estimate   =     -15.80840215 Ry
     estimated scf accuracy    <       0.00038056 Ry

     iteration #  2     ecut=    12.00 Ry     beta=0.70
     Davidson diagonalization with overlap
     ethr =  4.76E-06,  avg # of iterations =  3.0

     total cpu time spent up to now is        1.2 secs

     total energy              =     -15.87097259 Ry
     Harris-Foulkes estimate   =     -15.87105409 Ry
     estimated scf accuracy    <       0.00014606 Ry

     iteration #  3     ecut=    12.00 Ry     beta=0.70
     Davidson diagonalization with overlap
     ethr =  1.83E-06,  avg # of iterations =  2.0

     total cpu time spent up to now is        1.2 secs

     total energy              =     -15.87100920 Ry
     Harris-Foulkes estimate   =     -15.87101218 Ry
     estimated scf accuracy    <       0.00001003 Ry

     iteration #  4     ecut=    12.00 Ry     beta=0.70
     Davidson diagonalization with overlap
     ethr =  1.25E-07,  avg # of iterations =  2.0

     total cpu time spent up to now is        1.2 secs

     total energy              =     -15.87100988 Ry
     Harris-Foulkes estimate   =     -15.87101044 Ry
     estimated scf accuracy    <       0.00000110 Ry

     iteration #  5     ecut=    12.00 Ry     beta=0.70
     Davidson diagonalization with overlap
     ethr =  1.37E-08,  avg # of iterations =  2.0

     total cpu time spent up to now is        1.2 secs

     total energy              =     -15.87101024 Ry
     Harris-Foulkes estimate   =     -15.87101027 Ry
     estimated scf accuracy    <       0.00000006 Ry

     iteration #  6     ecut=    12.00 Ry     beta=0.70
     Davidson diagonalization with overlap
     ethr =  7.25E-10,  avg # of iterations =  2.5

     total cpu time spent up to now is        1.2 secs

     End of self-consistent calculation

          k = 0.3004 0.3025 0.8629 (   186 PWs)   bands (ev):

    -1.4156   1.5983   3.3551   4.8100

          k = 0.3257 0.3219 0.2746 (   181 PWs)   bands (ev):

    -3.6154   4.3347   6.5196   6.5956

     highest occupied level (ev):     6.5956

!    total energy              =     -15.87101025 Ry
     Harris-Foulkes estimate   =     -15.87101025 Ry
     estimated scf accuracy    <          1.3E-09 Ry

     The total energy is the sum of the following terms:

     one-electron contribution =       6.52453916 Ry
     hartree contribution      =       0.56461613 Ry
     xc contribution           =      -4.77449802 Ry
     ewald contribution        =     -18.18566752 Ry

     convergence has been achieved in   6 iterations

     Forces acting on atoms (Ry/au):

     atom    1 type  1   force =     0.05016029    0.04365629   -0.04900829
     atom    2 type  1   force =    -0.05016029   -0.04365629    0.04900829

     Total force =     0.116822     Total SCF correction =     0.000027


     entering subroutine stress ...

          total   stress  (Ry/bohr**3)                   (kbar)     P= -174.09
   0.00007845   0.00256136   0.00021298         11.54    376.79     31.33
   0.00256136  -0.00020132   0.00029942        376.79    -29.61     44.05
   0.00021298   0.00029942  -0.00342752         31.33     44.05   -504.21


     number of scf cycles    =  13
     number of bfgs steps    =  10

     enthalpy old            =     -15.8718788936 Ry
     enthalpy new            =     -15.8710102513 Ry

     CASE: enthalpy_new > enthalpy_old

     new trust radius        =       0.0094194514 bohr
     new conv_thr            =       0.0000000262 Ry

     new unit-cell volume =    235.53949 a.u.^3 (    34.90335 Ang^3 )

CELL_PARAMETERS (alat= 10.20000000)
  -0.137886959   0.543269356   0.438980915
   0.538410545  -0.141280577   0.444966525
   0.376217863   0.384520327   0.024902013

ATOMIC_POSITIONS (alat)
Si       0.000812006   0.001113169  -0.048595356
Si       0.189781081   0.193141004   0.279361754



     Writing output data file pwscf.save
     NEW-OLD atomic charge density approx. for the potential
     NEW k-points:
   0.2999728   0.3017657   0.8526119   1.5000000
   0.3222860   0.3186163   0.2728407   0.5000000
     extrapolated charge    8.08283, renormalised to    8.00000

     total cpu time spent up to now is        1.3 secs

     Self-consistent Calculation

     iteration #  1     ecut=    12.00 Ry     beta=0.70
     Davidson diagonalization with overlap
     ethr =  1.00E-06,  avg # of iterations =  5.0

     total cpu time spent up to now is        1.3 secs

     total energy              =     -15.87187487 Ry
     Harris-Foulkes estimate   =     -15.92391887 Ry
     estimated scf accuracy    <       0.00029595 Ry

     iteration #  2     ecut=    12.00 Ry     beta=0.70
     Davidson diagonalization with overlap
     ethr =  3.70E-06,  avg # of iterations =  2.5

     total cpu time spent up to now is        1.3 secs

     total energy              =     -15.87188512 Ry
     Harris-Foulkes estimate   =     -15.87194052 Ry
     estimated scf accuracy    <       0.00009591 Ry

     iteration #  3     ecut=    12.00 Ry     beta=0.70
     Davidson diagonalization with overlap
     ethr =  1.20E-06,  avg # of iterations =  2.0

     total cpu time spent up to now is        1.3 secs

     total energy              =     -15.87191037 Ry
     Harris-Foulkes estimate   =     -15.87191330 Ry
     estimated scf accuracy    <       0.00000768 Ry

     iteration #  4     ecut=    12.00 Ry     beta=0.70
     Davidson diagonalization with overlap
     ethr =  9.61E-08,  avg # of iterations =  2.0

     total cpu time spent up to now is        1.3 secs

     total energy              =     -15.87191119 Ry
     Harris-Foulkes estimate   =     -15.87191149 Ry
     estimated scf accuracy    <       0.00000058 Ry

     iteration #  5     ecut=    12.00 Ry     beta=0.70
     Davidson diagonalization with overlap
     ethr =  7.19E-09,  avg # of iterations =  2.5

     total cpu time spent up to now is        1.3 secs

     total energy              =     -15.87191137 Ry
     Harris-Foulkes estimate   =     -15.87191139 Ry
     estimated scf accuracy    <       0.00000005 Ry

     iteration #  6     ecut=    12.00 Ry     beta=0.70
     Davidson diagonalization with overlap
     ethr =  5.84E-10,  avg # of iterations =  1.5

     total cpu time spent up to now is        1.3 secs

     End of self-consistent calculation

          k = 0.3000 0.3018 0.8526 (   186 PWs)   bands (ev):

    -1.5183   1.6913   3.2535   4.5449

          k = 0.3223 0.3186 0.2728 (   181 PWs)   bands (ev):

    -3.7062   4.4248   6.2389   6.3324

     highest occupied level (ev):     6.3324

!    total energy              =     -15.87191138 Ry
     Harris-Foulkes estimate   =     -15.87191138 Ry
     estimated scf accuracy    <          5.3E-09 Ry

     The total energy is the sum of the following terms:

     one-electron contribution =       6.36857016 Ry
     hartree contribution      =       0.61190396 Ry
     xc contribution           =      -4.77450109 Ry
     ewald contribution        =     -18.07788441 Ry

     convergence has been achieved in   6 iterations

     Forces acting on atoms (Ry/au):

     atom    1 type  1   force =     0.04851369    0.04230426   -0.04686139
     atom    2 type  1   force =    -0.04851369   -0.04230426    0.04686139

     Total force =     0.112599     Total SCF correction =     0.000066


     entering subroutine stress ...

          total   stress  (Ry/bohr**3)                   (kbar)     P= -155.83
   0.00016017   0.00217855   0.00020078         23.56    320.48     29.54
   0.00217855  -0.00008761   0.00026902        320.48    -12.89     39.57
   0.00020078   0.00026902  -0.00325041         29.54     39.57   -478.15


     number of scf cycles    =  14
     number of bfgs steps    =  10

     enthalpy old            =     -15.8718788936 Ry
     enthalpy new            =     -15.8719113756 Ry

     CASE: enthalpy_new < enthalpy_old


     WARNING: info= 15 for Hessian

     WARNING: bfgs curvature condition failed, Theta= 0.853
     new trust radius        =       0.0284850295 bohr
     new conv_thr            =       0.0000000100 Ry

     new unit-cell volume =    234.19288 a.u.^3 (    34.70380 Ang^3 )

CELL_PARAMETERS (alat= 10.20000000)
  -0.141956016   0.546057840   0.436252707
   0.541033890  -0.145653620   0.442533977
   0.373095345   0.381803595   0.026500722

ATOMIC_POSITIONS (alat)
Si       0.000903476   0.001231614  -0.050571949
Si       0.188573691   0.191981107   0.280405016



     Writing output data file pwscf.save
     NEW-OLD atomic charge density approx. for the potential
     NEW k-points:
   0.3001948   0.3021797   0.8583671   1.5000000
   0.3241923   0.3204438   0.2738492   0.5000000
     extrapolated charge    7.95401, renormalised to    8.00000

     total cpu time spent up to now is        1.4 secs

     Self-consistent Calculation

     iteration #  1     ecut=    12.00 Ry     beta=0.70
     Davidson diagonalization with overlap
     ethr =  1.00E-06,  avg # of iterations =  4.0

     total cpu time spent up to now is        1.4 secs

     total energy              =     -15.87162639 Ry
     Harris-Foulkes estimate   =     -15.84263600 Ry
     estimated scf accuracy    <       0.00008706 Ry

     iteration #  2     ecut=    12.00 Ry     beta=0.70
     Davidson diagonalization with overlap
     ethr =  1.09E-06,  avg # of iterations =  2.5

     total cpu time spent up to now is        1.4 secs

     total energy              =     -15.87163008 Ry
     Harris-Foulkes estimate   =     -15.87164633 Ry
     estimated scf accuracy    <       0.00002846 Ry

     iteration #  3     ecut=    12.00 Ry     beta=0.70
     Davidson diagonalization with overlap
     ethr =  3.56E-07,  avg # of iterations =  2.0

     total cpu time spent up to now is        1.4 secs

     total energy              =     -15.87163761 Ry
     Harris-Foulkes estimate   =     -15.87163867 Ry
     estimated scf accuracy    <       0.00000276 Ry

     iteration #  4     ecut=    12.00 Ry     beta=0.70
     Davidson diagonalization with overlap
     ethr =  3.45E-08,  avg # of iterations =  2.0

     total cpu time spent up to now is        1.4 secs

     total energy              =     -15.87163791 Ry
     Harris-Foulkes estimate   =     -15.87163800 Ry
     estimated scf accuracy    <       0.00000019 Ry

     iteration #  5     ecut=    12.00 Ry     beta=0.70
     Davidson diagonalization with overlap
     ethr =  2.33E-09,  avg # of iterations =  2.5

     total cpu time spent up to now is        1.4 secs

     total energy              =     -15.87163797 Ry
     Harris-Foulkes estimate   =     -15.87163797 Ry
     estimated scf accuracy    <       0.00000001 Ry

     iteration #  6     ecut=    12.00 Ry     beta=0.70
     Davidson diagonalization with overlap
     ethr =  1.64E-10,  avg # of iterations =  2.0

     total cpu time spent up to now is        1.4 secs

     End of self-consistent calculation

          k = 0.3002 0.3022 0.8584 (   186 PWs)   bands (ev):

    -1.4610   1.6416   3.3083   4.6916

          k = 0.3242 0.3204 0.2738 (   181 PWs)   bands (ev):

    -3.6553   4.3738   6.3942   6.4767

     highest occupied level (ev):     6.4767

!    total energy              =     -15.87163797 Ry
     Harris-Foulkes estimate   =     -15.87163797 Ry
     estimated scf accuracy    <          6.8E-10 Ry

     The total energy is the sum of the following terms:

     one-electron contribution =       6.45658348 Ry
     hartree contribution      =       0.58460092 Ry
     xc contribution           =      -4.77408139 Ry
     ewald contribution        =     -18.13874097 Ry

     convergence has been achieved in   6 iterations

     Forces acting on atoms (Ry/au):

     atom    1 type  1   force =     0.04949948    0.04311138   -0.04817905
     atom    2 type  1   force =    -0.04949948   -0.04311138    0.04817905

     Total force =     0.115152     Total SCF correction =     0.000023


     entering subroutine stress ...

          total   stress  (Ry/bohr**3)                   (kbar)     P= -166.29
   0.00011542   0.00239210   0.00020814         16.98    351.89     30.62
   0.00239210  -0.00015011   0.00028631        351.89    -22.08     42.12
   0.00020814   0.00028631  -0.00335646         30.62     42.12   -493.75


     number of scf cycles    =  15
     number of bfgs steps    =  11

     enthalpy old            =     -15.8719113756 Ry
     enthalpy new            =     -15.8716379696 Ry

     CASE: enthalpy_new > enthalpy_old

     new trust radius        =       0.0004498311 bohr
     new conv_thr            =       0.0000000100 Ry

     new unit-cell volume =    235.51852 a.u.^3 (    34.90024 Ang^3 )

CELL_PARAMETERS (alat= 10.20000000)
  -0.137951510   0.543313591   0.438937635
   0.538452161  -0.141349950   0.444927936
   0.376168328   0.384477230   0.024927374

ATOMIC_POSITIONS (alat)
Si       0.000813562   0.001115130  -0.048627025
Si       0.189761822   0.193122522   0.279378617



     Writing output data file pwscf.save
     NEW-OLD atomic charge density approx. for the potential
     NEW k-points:
   0.2999765   0.3017725   0.8527025   1.5000000
   0.3223160   0.3186451   0.2728566   0.5000000
     extrapolated charge    8.04502, renormalised to    8.00000

     total cpu time spent up to now is        1.5 secs

     Self-consistent Calculation

     iteration #  1     ecut=    12.00 Ry     beta=0.70
     Davidson diagonalization with overlap
     ethr =  1.00E-06,  avg # of iterations =  4.5

     total cpu time spent up to now is        1.5 secs

     total energy              =     -15.87190103 Ry
     Harris-Foulkes estimate   =     -15.90012850 Ry
     estimated scf accuracy    <       0.00008638 Ry

     iteration #  2     ecut=    12.00 Ry     beta=0.70
     Davidson diagonalization with overlap
     ethr =  1.08E-06,  avg # of iterations =  2.5

     total cpu time spent up to now is        1.5 secs

     total energy              =     -15.87190400 Ry
     Harris-Foulkes estimate   =     -15.87191958 Ry
     estimated scf accuracy    <       0.00002703 Ry

     iteration #  3     ecut=    12.00 Ry     beta=0.70
     Davidson diagonalization with overlap
     ethr =  3.38E-07,  avg # of iterations =  2.0

     total cpu time spent up to now is        1.5 secs

     total energy              =     -15.87191110 Ry
     Harris-Foulkes estimate   =     -15.87191208 Ry
     estimated scf accuracy    <       0.00000250 Ry

     iteration #  4     ecut=    12.00 Ry     beta=0.70
     Davidson diagonalization with overlap
     ethr =  3.13E-08,  avg # of iterations =  2.0

     total cpu time spent up to now is        1.5 secs

     total energy              =     -15.87191137 Ry
     Harris-Foulkes estimate   =     -15.87191146 Ry
     estimated scf accuracy    <       0.00000017 Ry

     iteration #  5     ecut=    12.00 Ry     beta=0.70
     Davidson diagonalization with overlap
     ethr =  2.14E-09,  avg # of iterations =  2.5

     total cpu time spent up to now is        1.5 secs

     total energy              =     -15.87191143 Ry
     Harris-Foulkes estimate   =     -15.87191143 Ry
     estimated scf accuracy    <       0.00000001 Ry

     iteration #  6     ecut=    12.00 Ry     beta=0.70
     Davidson diagonalization with overlap
     ethr =  1.77E-10,  avg # of iterations =  2.0

     total cpu time spent up to now is        1.5 secs

     End of self-consistent calculation

          k = 0.3000 0.3018 0.8527 (   186 PWs)   bands (ev):

    -1.5174   1.6905   3.2543   4.5472

          k = 0.3223 0.3186 0.2729 (   181 PWs)   bands (ev):

    -3.7054   4.4239   6.2414   6.3347

     highest occupied level (ev):     6.3347

!    total energy              =     -15.87191143 Ry
     Harris-Foulkes estimate   =     -15.87191143 Ry
     estimated scf accuracy    <          1.7E-09 Ry

     The total energy is the sum of the following terms:

     one-electron contribution =       6.36999346 Ry
     hartree contribution      =       0.61143490 Ry
     xc contribution           =      -4.77448213 Ry
     ewald contribution        =     -18.07885766 Ry

     convergence has been achieved in   6 iterations

     Forces acting on atoms (Ry/au):

     atom    1 type  1   force =     0.04853108    0.04231931   -0.04689089
     atom    2 type  1   force =    -0.04853108   -0.04231931    0.04689089

     Total force =     0.112649     Total SCF correction =     0.000037


     entering subroutine stress ...

          total   stress  (Ry/bohr**3)                   (kbar)     P= -156.00
   0.00015948   0.00218201   0.00020092         23.46    320.98     29.56
   0.00218201  -0.00008859   0.00026932        320.98    -13.03     39.62
   0.00020092   0.00026932  -0.00325226         29.56     39.62   -478.42


     number of scf cycles    =  16
     number of bfgs steps    =  11

     enthalpy old            =     -15.8719113756 Ry
     enthalpy new            =     -15.8719114286 Ry

     CASE: enthalpy_new < enthalpy_old


     WARNING: info= 15 for Hessian

     WARNING: bfgs curvature condition failed, Theta= 0.853
     new trust radius        =       0.0013555416 bohr
     new conv_thr            =       0.0000000100 Ry

     new unit-cell volume =    235.45556 a.u.^3 (    34.89091 Ang^3 )

CELL_PARAMETERS (alat= 10.20000000)
  -0.138145151   0.543446345   0.438807799
   0.538577056  -0.141558063   0.444812176
   0.376019753   0.384347972   0.025003492

ATOMIC_POSITIONS (alat)
Si       0.000818210   0.001120996  -0.048722020
Si       0.189704088   0.193067114   0.279429205



     Writing output data file pwscf.save
     NEW-OLD atomic charge density approx. for the potential
     NEW k-points:
   0.2999875   0.3017926   0.8529744   1.5000000
   0.3224062   0.3187315   0.2729046   0.5000000
     extrapolated charge    7.99786, renormalised to    8.00000

     total cpu time spent up to now is        1.6 secs

     Self-consistent Calculation

     iteration #  1     ecut=    12.00 Ry     beta=0.70
     Davidson diagonalization with overlap
     ethr =  1.00E-06,  avg # of iterations =  2.0

     Threshold (ethr) on eigenvalues was too large:
     Diagonalizing with lowered threshold

     Davidson diagonalization with overlap
     ethr =  1.69E-09,  avg # of iterations =  3.5

     total cpu time spent up to now is        1.6 secs

     total energy              =     -15.87191083 Ry
     Harris-Foulkes estimate   =     -15.87057290 Ry
     estimated scf accuracy    <       0.00000020 Ry

     iteration #  2     ecut=    12.00 Ry     beta=0.70
     Davidson diagonalization with overlap
     ethr =  2.49E-09,  avg # of iterations =  2.0

     total cpu time spent up to now is        1.6 secs

     total energy              =     -15.87191083 Ry
     Harris-Foulkes estimate   =     -15.87191086 Ry
     estimated scf accuracy    <       0.00000005 Ry

     iteration #  3     ecut=    12.00 Ry     beta=0.70
     Davidson diagonalization with overlap
     ethr =  5.74E-10,  avg # of iterations =  2.0

     total cpu time spent up to now is        1.6 secs

     total energy              =     -15.87191085 Ry
     Harris-Foulkes estimate   =     -15.87191085 Ry
     estimated scf accuracy    <       0.00000001 Ry

     iteration #  4     ecut=    12.00 Ry     beta=0.70
     Davidson diagonalization with overlap
     ethr =  1.48E-10,  avg # of iterations =  2.0

     total cpu time spent up to now is        1.6 secs

     End of self-consistent calculation

          k = 0.3000 0.3018 0.8530 (   186 PWs)   bands (ev):

    -1.5146   1.6883   3.2568   4.5541

          k = 0.3224 0.3187 0.2729 (   181 PWs)   bands (ev):

    -3.7029   4.4215   6.2487   6.3414

     highest occupied level (ev):     6.3414

!    total energy              =     -15.87191085 Ry
     Harris-Foulkes estimate   =     -15.87191085 Ry
     estimated scf accuracy    <          3.2E-10 Ry

     The total energy is the sum of the following terms:

     one-electron contribution =       6.37422093 Ry
     hartree contribution      =       0.61008183 Ry
     xc contribution           =      -4.77443724 Ry
     ewald contribution        =     -18.08177636 Ry

     convergence has been achieved in   4 iterations

     Forces acting on atoms (Ry/au):

     atom    1 type  1   force =     0.04858266    0.04236196   -0.04696143
     atom    2 type  1   force =    -0.04858266   -0.04236196    0.04696143

     Total force =     0.112785     Total SCF correction =     0.000015


     entering subroutine stress ...

          total   stress  (Ry/bohr**3)                   (kbar)     P= -156.51
   0.00015743   0.00219216   0.00020127         23.16    322.48     29.61
   0.00219216  -0.00009149   0.00027014        322.48    -13.46     39.74
   0.00020127   0.00027014  -0.00325770         29.61     39.74   -479.22


     number of scf cycles    =  17
     number of bfgs steps    =  12

     enthalpy old            =     -15.8719114286 Ry
     enthalpy new            =     -15.8719108468 Ry

     CASE: enthalpy_new > enthalpy_old

     new trust radius        =       0.0001041183 bohr
     new conv_thr            =       0.0000000100 Ry

     new unit-cell volume =    235.51369 a.u.^3 (    34.89953 Ang^3 )

CELL_PARAMETERS (alat= 10.20000000)
  -0.137966386   0.543323790   0.438927660
   0.538461757  -0.141365939   0.444919042
   0.376156914   0.384467299   0.024933222

ATOMIC_POSITIONS (alat)
Si       0.000813920   0.001115581  -0.048634326
Si       0.189757386   0.193118264   0.279382507



     Writing output data file pwscf.save
     NEW-OLD atomic charge density approx. for the potential
     NEW k-points:
   0.2999773   0.3017740   0.8527234   1.5000000
   0.3223229   0.3186517   0.2728603   0.5000000
     extrapolated charge    8.00197, renormalised to    8.00000

     total cpu time spent up to now is        1.7 secs

     Self-consistent Calculation

     iteration #  1     ecut=    12.00 Ry     beta=0.70
     Davidson diagonalization with overlap
     ethr =  1.00E-06,  avg # of iterations =  1.5

     Threshold (ethr) on eigenvalues was too large:
     Diagonalizing with lowered threshold

     Davidson diagonalization with overlap
     ethr =  1.37E-09,  avg # of iterations =  3.5

     total cpu time spent up to now is        1.7 secs

     total energy              =     -15.87191141 Ry
     Harris-Foulkes estimate   =     -15.87314603 Ry
     estimated scf accuracy    <       0.00000017 Ry

     iteration #  2     ecut=    12.00 Ry     beta=0.70
     Davidson diagonalization with overlap
     ethr =  2.09E-09,  avg # of iterations =  3.0

     total cpu time spent up to now is        1.7 secs

     total energy              =     -15.87191141 Ry
     Harris-Foulkes estimate   =     -15.87191145 Ry
     estimated scf accuracy    <       0.00000006 Ry

     iteration #  3     ecut=    12.00 Ry     beta=0.70
     Davidson diagonalization with overlap
     ethr =  7.22E-10,  avg # of iterations =  2.0

     total cpu time spent up to now is        1.7 secs

     End of self-consistent calculation

          k = 0.3000 0.3018 0.8527 (   186 PWs)   bands (ev):

    -1.5170   1.6903   3.2545   4.5479

          k = 0.3223 0.3187 0.2729 (   181 PWs)   bands (ev):

[...]
     number of bfgs steps    =  23

     enthalpy old            =     -16.1246660924 Ry
     enthalpy new            =     -16.1246785784 Ry

     CASE: enthalpy_new < enthalpy_old

     new trust radius        =       0.0037683987 bohr
     new conv_thr            =       0.0000000100 Ry

     new unit-cell volume =    179.52704 a.u.^3 (    26.60316 Ang^3 )

CELL_PARAMETERS (alat= 10.20000000)
  -0.067033750   0.552748081   0.335798771
   0.556386618  -0.065599591   0.336137586
   0.436398259   0.436700314   0.042731180

ATOMIC_POSITIONS (alat)
Si       0.007079181   0.007993984  -0.056873092
Si       0.220455902   0.220253215   0.237948831



     Writing output data file pwscf.save
     NEW-OLD atomic charge density approx. for the potential
     NEW k-points:
   0.2302545   0.2305065   1.1461653   1.5000000
   0.2698719   0.2698748   0.3494504   0.5000000
     extrapolated charge    7.99580, renormalised to    8.00000

     total cpu time spent up to now is        2.8 secs

     Self-consistent Calculation

     iteration #  1     ecut=    12.00 Ry     beta=0.70
     Davidson diagonalization with overlap
     ethr =  1.00E-06,  avg # of iterations =  3.0

     Threshold (ethr) on eigenvalues was too large:
     Diagonalizing with lowered threshold

     Davidson diagonalization with overlap
     ethr =  4.88E-09,  avg # of iterations =  3.0

     total cpu time spent up to now is        2.8 secs

     total energy              =     -16.12468456 Ry
     Harris-Foulkes estimate   =     -16.12146384 Ry
     estimated scf accuracy    <       0.00000058 Ry

     iteration #  2     ecut=    12.00 Ry     beta=0.70
     Davidson diagonalization with overlap
     ethr =  7.27E-09,  avg # of iterations =  2.0

     total cpu time spent up to now is        2.9 secs

     total energy              =     -16.12468463 Ry
     Harris-Foulkes estimate   =     -16.12468464 Ry
     estimated scf accuracy    <       0.00000004 Ry

     iteration #  3     ecut=    12.00 Ry     beta=0.70
     Davidson diagonalization with overlap
     ethr =  5.35E-10,  avg # of iterations =  1.5

     total cpu time spent up to now is        2.9 secs

     End of self-consistent calculation

          k = 0.2303 0.2305 1.1462 (   186 PWs)   bands (ev):

     2.1532   3.3225   5.0958   5.1447

          k = 0.2699 0.2699 0.3495 (   181 PWs)   bands (ev):

    -2.4248   7.8974   8.7578  10.4654

     highest occupied level (ev):    10.4654

!    total energy              =     -16.12468464 Ry
     Harris-Foulkes estimate   =     -16.12468464 Ry
     estimated scf accuracy    <          1.8E-09 Ry

     The total energy is the sum of the following terms:

     one-electron contribution =       8.77308961 Ry
     hartree contribution      =       0.25118318 Ry
     xc contribution           =      -5.08722783 Ry
     ewald contribution        =     -20.06172959 Ry

     convergence has been achieved in   3 iterations

     Forces acting on atoms (Ry/au):

     atom    1 type  1   force =     0.00004721    0.00006630    0.00031772
     atom    2 type  1   force =    -0.00004721   -0.00006630   -0.00031772

     Total force =     0.000464     Total SCF correction =     0.000003


     entering subroutine stress ...

          total   stress  (Ry/bohr**3)                   (kbar)     P=   -0.55
  -0.00000816  -0.00000550  -0.00000136         -1.20     -0.81     -0.20
  -0.00000550  -0.00000211   0.00000144         -0.81     -0.31      0.21
  -0.00000136   0.00000144  -0.00000099         -0.20      0.21     -0.15


     number of scf cycles    =  31
     number of bfgs steps    =  24

     enthalpy old            =     -16.1246785784 Ry
     enthalpy new            =     -16.1246846363 Ry

     CASE: enthalpy_new < enthalpy_old

     new trust radius        =       0.0015233426 bohr
     new conv_thr            =       0.0000000100 Ry

     new unit-cell volume =    179.51721 a.u.^3 (    26.60171 Ang^3 )

CELL_PARAMETERS (alat= 10.20000000)
  -0.067137348   0.552708646   0.336012360
   0.556234317  -0.065687211   0.336304715
   0.436108624   0.436462625   0.042755825

ATOMIC_POSITIONS (alat)
Si       0.007141903   0.008014083  -0.056863921
Si       0.220259335   0.220144385   0.238042406



     Writing output data file pwscf.save
     NEW-OLD atomic charge density approx. for the potential
     NEW k-points:
   0.2304573   0.2305884   1.1454405   1.5000000
   0.2700727   0.2700086   0.3491632   0.5000000
     extrapolated charge    7.99956, renormalised to    8.00000

     total cpu time spent up to now is        2.9 secs

     Self-consistent Calculation

     iteration #  1     ecut=    12.00 Ry     beta=0.70
     Davidson diagonalization with overlap
     ethr =  1.00E-06,  avg # of iterations =  1.5

     Threshold (ethr) on eigenvalues was too large:
     Diagonalizing with lowered threshold

     Davidson diagonalization with overlap
     ethr =  4.23E-10,  avg # of iterations =  4.0

     total cpu time spent up to now is        2.9 secs

     total energy              =     -16.12468564 Ry
     Harris-Foulkes estimate   =     -16.12434979 Ry
     estimated scf accuracy    <       0.00000012 Ry

     iteration #  2     ecut=    12.00 Ry     beta=0.70
     Davidson diagonalization with overlap
     ethr =  1.56E-09,  avg # of iterations =  2.0

     total cpu time spent up to now is        2.9 secs

     End of self-consistent calculation

          k = 0.2305 0.2306 1.1454 (   186 PWs)   bands (ev):

     2.1523   3.3217   5.0976   5.1456

          k = 0.2701 0.2700 0.3492 (   181 PWs)   bands (ev):

    -2.4249   7.8947   8.7585  10.4677

     highest occupied level (ev):    10.4677

!    total energy              =     -16.12468566 Ry
     Harris-Foulkes estimate   =     -16.12468566 Ry
     estimated scf accuracy    <          6.2E-09 Ry

     The total energy is the sum of the following terms:

     one-electron contribution =       8.77298965 Ry
     hartree contribution      =       0.25138081 Ry
     xc contribution           =      -5.08737950 Ry
     ewald contribution        =     -20.06167662 Ry

     convergence has been achieved in   2 iterations

     Forces acting on atoms (Ry/au):

     atom    1 type  1   force =    -0.00001764    0.00007901    0.00014245
     atom    2 type  1   force =     0.00001764   -0.00007901   -0.00014245

     Total force =     0.000232     Total SCF correction =     0.000032
     SCF correction compared to forces is large: reduce conv_thr to get better values


     entering subroutine stress ...

          total   stress  (Ry/bohr**3)                   (kbar)     P=   -0.19
  -0.00000399  -0.00000110  -0.00000153         -0.59     -0.16     -0.23
  -0.00000110   0.00000097   0.00000047         -0.16      0.14      0.07
  -0.00000153   0.00000047  -0.00000094         -0.23      0.07     -0.14


     number of scf cycles    =  32
     number of bfgs steps    =  25

     enthalpy old            =     -16.1246846363 Ry
     enthalpy new            =     -16.1246856559 Ry

     CASE: enthalpy_new < enthalpy_old

     new trust radius        =       0.0007275192 bohr
     new conv_thr            =       0.0000000100 Ry

     new unit-cell volume =    179.52022 a.u.^3 (    26.60215 Ang^3 )

CELL_PARAMETERS (alat= 10.20000000)
  -0.067143868   0.552766546   0.336086835
   0.556165582  -0.065688527   0.336330003
   0.436036702   0.436446512   0.042774639

ATOMIC_POSITIONS (alat)
Si       0.007178444   0.008043792  -0.056823203
Si       0.220186627   0.220125300   0.238031582



     Writing output data file pwscf.save
     NEW-OLD atomic charge density approx. for the potential
     NEW k-points:
   0.2305324   0.2305276   1.1452664   1.5000000
   0.2701365   0.2699920   0.3490845   0.5000000
     extrapolated charge    8.00013, renormalised to    8.00000

     total cpu time spent up to now is        3.0 secs

     Self-consistent Calculation

     iteration #  1     ecut=    12.00 Ry     beta=0.70
     Davidson diagonalization with overlap
     ethr =  1.00E-06,  avg # of iterations =  1.0

     Threshold (ethr) on eigenvalues was too large:
     Diagonalizing with lowered threshold

     Davidson diagonalization with overlap
     ethr =  7.53E-11,  avg # of iterations =  5.0

     total cpu time spent up to now is        3.0 secs

     total energy              =     -16.12468584 Ry
     Harris-Foulkes estimate   =     -16.12478896 Ry
     estimated scf accuracy    <       0.00000005 Ry

     iteration #  2     ecut=    12.00 Ry     beta=0.70
     Davidson diagonalization with overlap
     ethr =  5.72E-10,  avg # of iterations =  2.5

     total cpu time spent up to now is        3.0 secs

     End of self-consistent calculation

          k = 0.2305 0.2305 1.1453 (   186 PWs)   bands (ev):

     2.1515   3.3202   5.0980   5.1457

          k = 0.2701 0.2700 0.3491 (   181 PWs)   bands (ev):

    -2.4254   7.8918   8.7586  10.4683

     highest occupied level (ev):    10.4683

!    total energy              =     -16.12468585 Ry
     Harris-Foulkes estimate   =     -16.12468585 Ry
     estimated scf accuracy    <          1.7E-09 Ry

     The total energy is the sum of the following terms:

     one-electron contribution =       8.77239074 Ry
     hartree contribution      =       0.25157366 Ry
     xc contribution           =      -5.08742297 Ry
     ewald contribution        =     -20.06122727 Ry

     convergence has been achieved in   2 iterations

     Forces acting on atoms (Ry/au):

     atom    1 type  1   force =    -0.00005106    0.00003548    0.00000319
     atom    2 type  1   force =     0.00005106   -0.00003548   -0.00000319

     Total force =     0.000088     Total SCF correction =     0.000019
     SCF correction compared to forces is large: reduce conv_thr to get better values


     entering subroutine stress ...

          total   stress  (Ry/bohr**3)                   (kbar)     P=    0.00
  -0.00000159   0.00000016  -0.00000040         -0.23      0.02     -0.06
   0.00000016   0.00000150   0.00000068          0.02      0.22      0.10
  -0.00000040   0.00000068   0.00000011         -0.06      0.10      0.02


     bfgs converged in  33 scf cycles and  26 bfgs steps
     (criteria: energy <  1.0E-04, force <  1.0E-03, cell <  5.0E-01)

     End of BFGS Geometry Optimization

     Final enthalpy =     -16.1246858464 Ry
Begin final coordinates
     new unit-cell volume =    179.52022 a.u.^3 (    26.60215 Ang^3 )

CELL_PARAMETERS (alat= 10.20000000)
  -0.067143868   0.552766546   0.336086835
   0.556165582  -0.065688527   0.336330003
   0.436036702   0.436446512   0.042774639

ATOMIC_POSITIONS (alat)
Si       0.007178444   0.008043792  -0.056823203
Si       0.220186627   0.220125300   0.238031582
End final coordinates



     A final scf calculation at the relaxed structure.
     The G-vectors are recalculated for the final unit cell
     Results may differ from those at the preceding step.

     G-vector sticks info
     --------------------
     sticks:   dense  smooth     PW     G-vecs:    dense   smooth      PW
     Sum         167     167     63                 1001     1001     225



     bravais-lattice index     =            0
     lattice parameter (alat)  =      10.2000  a.u.
     unit-cell volume          =     179.5202 (a.u.)^3
     number of atoms/cell      =            2
     number of atomic types    =            1
     number of electrons       =         8.00
     number of Kohn-Sham states=            4
     kinetic-energy cutoff     =      12.0000  Ry
     charge density cutoff     =      48.0000  Ry
     convergence threshold     =      1.0E-08
     mixing beta               =       0.7000
     number of iterations used =            8  plain     mixing
     Exchange-correlation      =  SLA  PZ   NOGX NOGC ( 1  1  0  0 0 0)

     celldm(1)=  10.200000  celldm(2)=   0.000000  celldm(3)=   0.000000
     celldm(4)=   0.000000  celldm(5)=   0.000000  celldm(6)=   0.000000

     crystal axes: (cart. coord. in units of alat)
               a(1) = (  -0.067144   0.552767   0.336087 )  
               a(2) = (   0.556166  -0.065689   0.336330 )  
               a(3) = (   0.436037   0.436447   0.042775 )  

     reciprocal axes: (cart. coord. in units 2 pi/alat)
               b(1) = ( -0.884338  0.726284  1.604219 )  
               b(2) = (  0.727331 -0.883265  1.598024 )  
               b(3) = (  1.229497  1.238443 -1.791254 )  


     PseudoPot. # 1 for Si read from file:
     /Users/mdavezac/workspaces/pylada-light/data/upf_files/Si.pz-vbc.UPF
     MD5 check sum: 6dfa03ddd5817404712e03e4d12deb78
     Pseudo is Norm-conserving, Zval =  4.0
     Generated by new atomic code, or converted to UPF format
     Using radial grid of  431 points,  2 beta functions with: 
                l(1) =   0
                l(2) =   1

     atomic species   valence    mass     pseudopotential
        Si             4.00     1.00000     Si( 1.00)

     No symmetry found



   Cartesian axes

     site n.     atom                  positions (alat units)
         1           Si  tau(   1) = (   0.0071784   0.0080438  -0.0568232  )
         2           Si  tau(   2) = (   0.2201866   0.2201253   0.2380316  )

     number of k points=     2
                       cart. coord. in units 2pi/alat
        k(    1) = (   0.2305324   0.2305276   1.1452664), wk =   1.5000000
        k(    2) = (   0.2701365   0.2699920   0.3490845), wk =   0.5000000

     Dense  grid:     1001 G-vectors     FFT dimensions: (  15,  15,  15)

     Largest allocated arrays     est. size (Mb)     dimensions
        Kohn-Sham Wavefunctions         0.01 Mb     (     124,    4)
        NL pseudopotentials             0.02 Mb     (     124,    8)
        Each V/rho on FFT grid          0.05 Mb     (    3375)
        Each G-vector array             0.01 Mb     (    1001)
        G-vector shells                 0.00 Mb     (     501)
     Largest temporary arrays     est. size (Mb)     dimensions
        Auxiliary wavefunctions         0.03 Mb     (     124,   16)
        Each subspace H/S matrix        0.00 Mb     (      16,   16)
        Each <psi_i|beta_j> matrix      0.00 Mb     (       8,    4)
        Arrays for rho mixing           0.41 Mb     (    3375,    8)

     Initial potential from superposition of free atoms

     starting charge    7.99901, renormalised to    8.00000
     Starting wfc are    8 randomized atomic wfcs

     Writing output data file pwscf.save

     total cpu time spent up to now is        3.1 secs

     Self-consistent Calculation

     iteration #  1     ecut=    12.00 Ry     beta=0.70
     Davidson diagonalization with overlap
     ethr =  1.00E-06,  avg # of iterations =  6.0

     total cpu time spent up to now is        3.1 secs

     total energy              =     -16.12161099 Ry
     Harris-Foulkes estimate   =     -16.12675002 Ry
     estimated scf accuracy    <       0.02009637 Ry

     iteration #  2     ecut=    12.00 Ry     beta=0.70
     Davidson diagonalization with overlap
     ethr =  2.51E-04,  avg # of iterations =  2.0

     total cpu time spent up to now is        3.1 secs

     total energy              =     -16.12294560 Ry
     Harris-Foulkes estimate   =     -16.12302018 Ry
     estimated scf accuracy    <       0.00103804 Ry

     iteration #  3     ecut=    12.00 Ry     beta=0.70
     Davidson diagonalization with overlap
     ethr =  1.30E-05,  avg # of iterations =  1.5

     total cpu time spent up to now is        3.1 secs

     total energy              =     -16.12299702 Ry
     Harris-Foulkes estimate   =     -16.12299653 Ry
     estimated scf accuracy    <       0.00004646 Ry

     iteration #  4     ecut=    12.00 Ry     beta=0.70
     Davidson diagonalization with overlap
     ethr =  5.81E-07,  avg # of iterations =  1.5

     total cpu time spent up to now is        3.1 secs

     total energy              =     -16.12300054 Ry
     Harris-Foulkes estimate   =     -16.12300079 Ry
     estimated scf accuracy    <       0.00000070 Ry

     iteration #  5     ecut=    12.00 Ry     beta=0.70
     Davidson diagonalization with overlap
     ethr =  8.73E-09,  avg # of iterations =  2.5

     total cpu time spent up to now is        3.1 secs

     total energy              =     -16.12300085 Ry
     Harris-Foulkes estimate   =     -16.12300085 Ry
     estimated scf accuracy    <       0.00000002 Ry

     iteration #  6     ecut=    12.00 Ry     beta=0.70
     Davidson diagonalization with overlap
     ethr =  2.20E-10,  avg # of iterations =  3.0

     total cpu time spent up to now is        3.1 secs

     End of self-consistent calculation

          k = 0.2305 0.2305 1.1453 (   122 PWs)   bands (ev):

     2.0534   3.3910   5.1062   5.1748

          k = 0.2701 0.2700 0.3491 (   124 PWs)   bands (ev):

    -2.4797   7.8625   8.7419  10.5050

     highest occupied level (ev):    10.5050

!    total energy              =     -16.12300085 Ry
     Harris-Foulkes estimate   =     -16.12300085 Ry
     estimated scf accuracy    <          1.1E-09 Ry

     The total energy is the sum of the following terms:

     one-electron contribution =       8.77498153 Ry
     hartree contribution      =       0.24772294 Ry
     xc contribution           =      -5.08447990 Ry
     ewald contribution        =     -20.06122541 Ry

     convergence has been achieved in   6 iterations

     Forces acting on atoms (Ry/au):

     atom    1 type  1   force =    -0.00484946   -0.00470972   -0.00605033
     atom    2 type  1   force =     0.00484946    0.00470972    0.00605033

     Total force =     0.012830     Total SCF correction =     0.000005


     entering subroutine stress ...

          total   stress  (Ry/bohr**3)                   (kbar)     P=  -19.67
   0.00001516  -0.00022010  -0.00000637          2.23    -32.38     -0.94
  -0.00022010   0.00002081  -0.00000091        -32.38      3.06     -0.13
  -0.00000637  -0.00000091  -0.00043706         -0.94     -0.13    -64.29


     Writing output data file pwscf.save

     init_run     :      0.19s CPU      0.07s WALL (       2 calls)
     electrons    :      3.29s CPU      1.17s WALL (      34 calls)
     update_pot   :      1.85s CPU      0.67s WALL (      32 calls)
     forces       :      0.67s CPU      0.24s WALL (      34 calls)
     stress       :      1.35s CPU      0.48s WALL (      34 calls)

     Called by init_run:
     wfcinit      :      0.02s CPU      0.01s WALL (       2 calls)
     potinit      :      0.03s CPU      0.01s WALL (       2 calls)

     Called by electrons:
     c_bands      :      2.54s CPU      0.91s WALL (     168 calls)
     sum_band     :      0.44s CPU      0.15s WALL (     168 calls)
     v_of_rho     :      0.16s CPU      0.06s WALL (     192 calls)
     mix_rho      :      0.08s CPU      0.03s WALL (     168 calls)

     Called by c_bands:
     init_us_2    :      0.06s CPU      0.02s WALL (     812 calls)
     cegterg      :      2.49s CPU      0.88s WALL (     336 calls)

     Called by sum_band:

     Called by *egterg:
     h_psi        :      2.07s CPU      0.73s WALL (    1298 calls)
     g_psi        :      0.01s CPU      0.00s WALL (     958 calls)
     cdiaghg      :      0.30s CPU      0.12s WALL (    1210 calls)

     Called by h_psi:
     add_vuspsi   :      0.02s CPU      0.01s WALL (    1298 calls)

     General routines
     calbec       :      0.03s CPU      0.01s WALL (    1638 calls)
     fft          :      0.26s CPU      0.09s WALL (     956 calls)
     fftw         :      2.20s CPU      0.77s WALL (   10240 calls)
     davcio       :      0.00s CPU      0.00s WALL (       4 calls)

     Parallel routines
     fft_scatter  :      0.09s CPU      0.03s WALL (   11196 calls)

     PWSCF        :     8.61s CPU         3.14s WALL


   This run was terminated on:  15:13:35  30Mar2016            

=------------------------------------------------------------------------------=
   JOB DONE.
=------------------------------------------------------------------------------=
